 Entering Gaussian System, Link 0=/home_nfs/ilm/allouche/Softwares/G09DCorr2/g09/g09
 Initial command:
 /home_nfs/ilm/allouche/Softwares/G09DCorr2/g09/l1.exe "/tmp/allouche/23512/Gau-22088.inp" -scrdir="/tmp/allouche/23512/"
 Entering Link 1 = /home_nfs/ilm/allouche/Softwares/G09DCorr2/g09/l1.exe PID=     22089.
  
 Copyright (c) 1988,1990,1992,1993,1995,1998,2003,2009,2013,
            Gaussian, Inc.  All Rights Reserved.
  
 This is part of the Gaussian(R) 09 program.  It is based on
 the Gaussian(R) 03 system (copyright 2003, Gaussian, Inc.),
 the Gaussian(R) 98 system (copyright 1998, Gaussian, Inc.),
 the Gaussian(R) 94 system (copyright 1995, Gaussian, Inc.),
 the Gaussian 92(TM) system (copyright 1992, Gaussian, Inc.),
 the Gaussian 90(TM) system (copyright 1990, Gaussian, Inc.),
 the Gaussian 88(TM) system (copyright 1988, Gaussian, Inc.),
 the Gaussian 86(TM) system (copyright 1986, Carnegie Mellon
 University), and the Gaussian 82(TM) system (copyright 1983,
 Carnegie Mellon University). Gaussian is a federally registered
 trademark of Gaussian, Inc.
  
 This software contains proprietary and confidential information,
 including trade secrets, belonging to Gaussian, Inc.
  
 This software is provided under written license and may be
 used, copied, transmitted, or stored only in accord with that
 written license.
  
 The following legend is applicable only to US Government
 contracts under FAR:
  
                    RESTRICTED RIGHTS LEGEND
  
 Use, reproduction and disclosure by the US Government is
 subject to restrictions as set forth in subparagraphs (a)
 and (c) of the Commercial Computer Software - Restricted
 Rights clause in FAR 52.227-19.
  
 Gaussian, Inc.
 340 Quinnipiac St., Bldg. 40, Wallingford CT 06492
  
  
 ---------------------------------------------------------------
 Warning -- This program may not be used in any manner that
 competes with the business of Gaussian, Inc. or will provide
 assistance to any competitor of Gaussian, Inc.  The licensee
 of this program is prohibited from giving any competitor of
 Gaussian, Inc. access to this program.  By using this program,
 the user acknowledges that Gaussian, Inc. is engaged in the
 business of creating and licensing software in the field of
 computational chemistry and represents and warrants to the
 licensee that it is not a competitor of Gaussian, Inc. and that
 it will not use this program in any manner prohibited above.
 ---------------------------------------------------------------
  

 Cite this work as:
 Gaussian 09, Revision D.01,
 M. J. Frisch, G. W. Trucks, H. B. Schlegel, G. E. Scuseria, 
 M. A. Robb, J. R. Cheeseman, G. Scalmani, V. Barone, B. Mennucci, 
 G. A. Petersson, H. Nakatsuji, M. Caricato, X. Li, H. P. Hratchian, 
 A. F. Izmaylov, J. Bloino, G. Zheng, J. L. Sonnenberg, M. Hada, 
 M. Ehara, K. Toyota, R. Fukuda, J. Hasegawa, M. Ishida, T. Nakajima, 
 Y. Honda, O. Kitao, H. Nakai, T. Vreven, J. A. Montgomery, Jr., 
 J. E. Peralta, F. Ogliaro, M. Bearpark, J. J. Heyd, E. Brothers, 
 K. N. Kudin, V. N. Staroverov, T. Keith, R. Kobayashi, J. Normand, 
 K. Raghavachari, A. Rendell, J. C. Burant, S. S. Iyengar, J. Tomasi, 
 M. Cossi, N. Rega, J. M. Millam, M. Klene, J. E. Knox, J. B. Cross, 
 V. Bakken, C. Adamo, J. Jaramillo, R. Gomperts, R. E. Stratmann, 
 O. Yazyev, A. J. Austin, R. Cammi, C. Pomelli, J. W. Ochterski, 
 R. L. Martin, K. Morokuma, V. G. Zakrzewski, G. A. Voth, 
 P. Salvador, J. J. Dannenberg, S. Dapprich, A. D. Daniels, 
 O. Farkas, J. B. Foresman, J. V. Ortiz, J. Cioslowski, 
 and D. J. Fox, Gaussian, Inc., Wallingford CT, 2013.
 
 ******************************************
 Gaussian 09:  EM64L-G09RevD.01 24-Apr-2013
                12-Dec-2015 
 ******************************************
 -----------
 #P PM3 FREQ
 -----------
 1/10=4,30=1,38=1/1,3;
 2/12=2,17=6,18=5,40=1/2;
 3/5=2,16=1,25=1,41=800000,71=2,140=1/1,2,3;
 4/35=1/1;
 5/5=2,35=1,38=5,98=1/2;
 8/6=4,10=90,11=11/1;
 11/6=1,8=1,9=11,15=111,16=1/1,2,10;
 10/6=1/2;
 6/7=2,8=2,9=2,10=2,18=1,28=1/1;
 7/8=1,10=1,25=1/1,2,3,16;
 1/10=4,30=1/3;
 99//99;
 Leave Link    1 at Sat Dec 12 23:28:35 2015, MaxMem=           0 cpu:         2.3
 (Enter /home_nfs/ilm/allouche/Softwares/G09DCorr2/g09/l101.exe)
 ----
 TEST
 ----
 Symbolic Z-matrix:
 Charge =  0 Multiplicity = 1
 O                    -0.00001  -0.38096   0. 
 H                     0.76797   0.18      0. 
 H                    -0.76793   0.17996   0. 
 
 NAtoms=      3 NQM=        3 NQMF=       0 NMMI=      0 NMMIF=      0
                NMic=       0 NMicF=      0.
                    Isotopes and Nuclear Properties:
 (Nuclear quadrupole moments (NQMom) in fm**2, nuclear magnetic moments (NMagM)
  in nuclear magnetons)

  Atom         1           2           3
 IAtWgt=          16           1           1
 AtmWgt=  15.9949146   1.0078250   1.0078250
 NucSpn=           0           1           1
 AtZEff=   0.0000000   0.0000000   0.0000000
 NQMom=    0.0000000   0.0000000   0.0000000
 NMagM=    0.0000000   2.7928460   2.7928460
 AtZNuc=   8.0000000   1.0000000   1.0000000
 Leave Link  101 at Sat Dec 12 23:28:38 2015, MaxMem=    33554432 cpu:         2.3
 (Enter /home_nfs/ilm/allouche/Softwares/G09DCorr2/g09/l103.exe)

 GradGradGradGradGradGradGradGradGradGradGradGradGradGradGradGradGradGrad
 Berny optimization.
 Initialization pass.
 Trust Radius=3.00D-01 FncErr=1.00D-07 GrdErr=1.00D-07
 Number of steps in this run=      2 maximum allowed number of steps=      2.
 GradGradGradGradGradGradGradGradGradGradGradGradGradGradGradGradGradGrad

 Leave Link  103 at Sat Dec 12 23:28:40 2015, MaxMem=    33554432 cpu:         1.7
 (Enter /home_nfs/ilm/allouche/Softwares/G09DCorr2/g09/l202.exe)
                          Input orientation:                          
 ---------------------------------------------------------------------
 Center     Atomic      Atomic             Coordinates (Angstroms)
 Number     Number       Type             X           Y           Z
 ---------------------------------------------------------------------
      1          8           0       -0.000010   -0.380962    0.000000
      2          1           0        0.767966    0.179996    0.000000
      3          1           0       -0.767926    0.179964    0.000000
 ---------------------------------------------------------------------
                    Distance matrix (angstroms):
                    1          2          3
     1  O    0.000000
     2  H    0.951032   0.000000
     3  H    0.950964   1.535892   0.000000
 Stoichiometry    H2O
 Framework group  CS[SG(H2O)]
 Deg. of freedom     3
 Full point group                 CS      NOp   2
 Largest Abelian subgroup         CS      NOp   2
 Largest concise Abelian subgroup C1      NOp   1
                         Standard orientation:                         
 ---------------------------------------------------------------------
 Center     Atomic      Atomic             Coordinates (Angstroms)
 Number     Number       Type             X           Y           Z
 ---------------------------------------------------------------------
      1          8           0        0.000000    0.112188    0.000000
      2          1           0        0.767946   -0.448811    0.000000
      3          1           0       -0.767946   -0.448697    0.000000
 ---------------------------------------------------------------------
 Rotational constants (GHZ):    897.2460327    425.1485376    288.4637061
 Leave Link  202 at Sat Dec 12 23:28:41 2015, MaxMem=    33554432 cpu:         0.0
 (Enter /home_nfs/ilm/allouche/Softwares/G09DCorr2/g09/l301.exe)
 Standard basis: VSTO-6G (5D, 7F)
 Ernie: Thresh=  0.10000D-02 Tol=  0.10000D-05 Strict=F.
  NNHCO=     0 NNPyr=     0 NCTC=     0               EPep=         0.000000000
    EC=         5.031059396  ECS=         0.409614250   EG=         0.049172278
   EHC=         0.000000000  EAt=       -11.594002353  AtH=         0.260972954
 EPDDG=         0.000000000  ECC=         5.489845925 EAtT=        11.854975307
 There are     5 symmetry adapted cartesian basis functions of A'  symmetry.
 There are     1 symmetry adapted cartesian basis functions of A"  symmetry.
 There are     5 symmetry adapted basis functions of A'  symmetry.
 There are     1 symmetry adapted basis functions of A"  symmetry.
     6 basis functions,    36 primitive gaussians,     6 cartesian basis functions
     4 alpha electrons        4 beta electrons
       nuclear repulsion energy        17.3448212321 Hartrees.
 IExCor=    0 DFT=F Ex=HF Corr=None ExCW=0 ScaHFX=  1.000000
 ScaDFX=  1.000000  1.000000  1.000000  1.000000 ScalE2=  1.000000  1.000000
 IRadAn=      0 IRanWt=     -1 IRanGd=            0 ICorTp=0 IEmpDi=  4
 Integral buffers will be    131072 words long.
 Regular integral format.
 Two-electron integral symmetry is turned off.
 Leave Link  301 at Sat Dec 12 23:28:41 2015, MaxMem=    33554432 cpu:         0.4
 (Enter /home_nfs/ilm/allouche/Softwares/G09DCorr2/g09/l302.exe)
 Do NDO integrals.
 NPDir=0 NMtPBC=     1 NCelOv=     1 NCel=       1 NClECP=     1 NCelD=      1
         NCelK=      1 NCelE2=     1 NClLst=     1 CellRange=     0.0.
 One-electron integrals computed using PRISM.
 NBasis=     6 RedAO= T EigKep=  1.41D+00  NBF=     5     1
 NBsUse=     6 1.00D-06 EigRej= -1.00D+00 NBFU=     5     1
 Leave Link  302 at Sat Dec 12 23:28:42 2015, MaxMem=    33554432 cpu:         0.4
 (Enter /home_nfs/ilm/allouche/Softwares/G09DCorr2/g09/l303.exe)
 DipDrv:  MaxL=1.
 Leave Link  303 at Sat Dec 12 23:28:42 2015, MaxMem=    33554432 cpu:         0.4
 (Enter /home_nfs/ilm/allouche/Softwares/G09DCorr2/g09/l401.exe)
 Simple Huckel Guess.
 JPrj=0 DoOrth=F DoCkMO=F.
 Initial guess orbital symmetries:
       Occupied  (A') (A') (A') (A")
       Virtual   (A') (A')
 The electronic state of the initial guess is 1-A'.
 Leave Link  401 at Sat Dec 12 23:28:43 2015, MaxMem=    33554432 cpu:         0.5
 (Enter /home_nfs/ilm/allouche/Softwares/G09DCorr2/g09/l502.exe)
 Closed shell SCF:
 Using DIIS extrapolation, IDIIS=  1040.
 Overlap will be assumed to be unity.
 Two-electron integral symmetry not used.
 Keep J ints in memory in canonical form, NReq=882353.
 IVT=       79026 IEndB=       79026 NGot=    33554432 MDV=    33475329
 LenX=    33475329 LenY=    33474447
 Requested convergence on RMS density matrix=1.00D-08 within 128 cycles.
 Requested convergence on MAX density matrix=1.00D-06.
 Requested convergence on             energy=1.00D-06.
 No special actions if energy rises.
 FoFCou: FMM=F IPFlag=           0 FMFlag=           0 FMFlg1=           0
         NFxFlg=           0 DoJE=F BraDBF=F KetDBF=F FulRan=T
         wScrn=  0.000000 ICntrl=     600 IOpCl=  2 I1Cent=           0 NGrid=           0
         NMat0=    1 NMatS0=     12 NMatT0=    0 NMatD0=    1 NMtDS0=    0 NMtDT0=    0
 Symmetry not used in FoFCou.

 Cycle   1  Pass 1  IDiag  1:
 E= 0.456350227110676E-01
 DIIS: error= 7.19D-02 at cycle   1 NSaved=   1.
 NSaved= 1 IEnMin= 1 EnMin= 0.456350227110676E-01 IErMin= 1 ErrMin= 7.19D-02
 ErrMax= 7.19D-02  0.00D+00 EMaxC= 1.00D-01 BMatC= 5.50D-02 BMatP= 5.50D-02
 IDIUse=3 WtCom= 2.81D-01 WtEn= 7.19D-01
 Coeff-Com:  0.100D+01
 Coeff-En:   0.100D+01
 Coeff:      0.100D+01
 GapD=    2.000 DampG=2.000 DampE=0.500 DampFc=1.0000 IDamp=-1.
 RMSDP=4.97D-02 MaxDP=1.52D-01              OVMax= 0.00D+00

 Cycle   2  Pass 1  IDiag  1:
 E=-0.724555407631300E-01 Delta-E=       -0.118090563474 Rises=F Damp=F
 DIIS: error= 1.72D-02 at cycle   2 NSaved=   2.
 NSaved= 2 IEnMin= 2 EnMin=-0.724555407631300E-01 IErMin= 2 ErrMin= 1.72D-02
 ErrMax= 1.72D-02  0.00D+00 EMaxC= 1.00D-01 BMatC= 3.45D-03 BMatP= 5.50D-02
 IDIUse=3 WtCom= 8.28D-01 WtEn= 1.72D-01
 Coeff-Com: -0.279D+00 0.128D+01
 Coeff-En:   0.000D+00 0.100D+01
 Coeff:     -0.231D+00 0.123D+01
 RMSDP=1.96D-02 MaxDP=5.92D-02 DE=-1.18D-01 OVMax= 0.00D+00

 Cycle   3  Pass 1  IDiag  3:
 E=-0.838140115163526E-01 Delta-E=       -0.011358470753 Rises=F Damp=F
 DIIS: error= 4.57D-03 at cycle   3 NSaved=   3.
 NSaved= 3 IEnMin= 3 EnMin=-0.838140115163526E-01 IErMin= 3 ErrMin= 4.57D-03
 ErrMax= 4.57D-03  0.00D+00 EMaxC= 1.00D-01 BMatC= 2.12D-04 BMatP= 3.45D-03
 IDIUse=3 WtCom= 9.54D-01 WtEn= 4.57D-02
 Coeff-Com:  0.201D+00-0.104D+01 0.184D+01
 Coeff-En:   0.000D+00 0.000D+00 0.100D+01
 Coeff:      0.191D+00-0.989D+00 0.180D+01
 Fock symm off for IB=2 I1=    1 I=    6 J=    2 Cut=1.00D-07 Err=1.01D-03
 Fock matrix is not symmetric: symmetry in diagonalization turned off.
 Gap=     0.598 Goal=   None    Shift=    0.000
 RMSDP=9.00D-03 MaxDP=3.38D-02 DE=-1.14D-02 OVMax= 3.82D-02

 Cycle   4  Pass 1  IDiag  3:
 E=-0.850115670532432E-01 Delta-E=       -0.001197555537 Rises=F Damp=F
 DIIS: error= 3.93D-04 at cycle   4 NSaved=   4.
 NSaved= 4 IEnMin= 4 EnMin=-0.850115670532432E-01 IErMin= 4 ErrMin= 3.93D-04
 ErrMax= 3.93D-04  0.00D+00 EMaxC= 1.00D-01 BMatC= 1.86D-06 BMatP= 2.12D-04
 IDIUse=3 WtCom= 9.96D-01 WtEn= 3.93D-03
 Coeff-Com: -0.610D-02 0.497D-01-0.185D+00 0.114D+01
 Coeff-En:   0.000D+00 0.000D+00 0.000D+00 0.100D+01
 Coeff:     -0.608D-02 0.495D-01-0.184D+00 0.114D+01
 Gap=     0.602 Goal=   None    Shift=    0.000
 RMSDP=7.44D-04 MaxDP=2.72D-03 DE=-1.20D-03 OVMax= 2.94D-03

 Cycle   5  Pass 1  IDiag  3:
 E=-0.850200073408445E-01 Delta-E=       -0.000008440288 Rises=F Damp=F
 DIIS: error= 6.34D-05 at cycle   5 NSaved=   5.
 NSaved= 5 IEnMin= 5 EnMin=-0.850200073408445E-01 IErMin= 5 ErrMin= 6.34D-05
 ErrMax= 6.34D-05  0.00D+00 EMaxC= 1.00D-01 BMatC= 3.72D-08 BMatP= 1.86D-06
 IDIUse=1 WtCom= 1.00D+00 WtEn= 0.00D+00
 Coeff-Com:  0.210D-02-0.246D-01 0.111D+00-0.786D+00 0.170D+01
 Coeff:      0.210D-02-0.246D-01 0.111D+00-0.786D+00 0.170D+01
 Gap=     0.602 Goal=   None    Shift=    0.000
 RMSDP=8.87D-05 MaxDP=3.55D-04 DE=-8.44D-06 OVMax= 3.61D-04

 Cycle   6  Pass 1  IDiag  3:
 E=-0.850201499455991E-01 Delta-E=       -0.000000142605 Rises=F Damp=F
 DIIS: error= 1.16D-06 at cycle   6 NSaved=   6.
 NSaved= 6 IEnMin= 6 EnMin=-0.850201499455991E-01 IErMin= 6 ErrMin= 1.16D-06
 ErrMax= 1.16D-06  0.00D+00 EMaxC= 1.00D-01 BMatC= 1.54D-11 BMatP= 3.72D-08
 IDIUse=1 WtCom= 1.00D+00 WtEn= 0.00D+00
 Coeff-Com: -0.198D-02 0.232D-01-0.104D+00 0.737D+00-0.160D+01 0.194D+01
 Coeff:     -0.198D-02 0.232D-01-0.104D+00 0.737D+00-0.160D+01 0.194D+01
 Gap=     0.602 Goal=   None    Shift=    0.000
 RMSDP=3.54D-06 MaxDP=1.21D-05 DE=-1.43D-07 OVMax= 1.37D-05

 Cycle   7  Pass 1  IDiag  3:
 E=-0.850201499664962E-01 Delta-E=       -0.000000000021 Rises=F Damp=F
 DIIS: error= 9.36D-07 at cycle   7 NSaved=   7.
 NSaved= 7 IEnMin= 7 EnMin=-0.850201499664962E-01 IErMin= 7 ErrMin= 9.36D-07
 ErrMax= 9.36D-07  0.00D+00 EMaxC= 1.00D-01 BMatC= 1.04D-11 BMatP= 1.54D-11
 IDIUse=1 WtCom= 1.00D+00 WtEn= 0.00D+00
 Coeff-Com:  0.158D-02-0.186D-01 0.826D-01-0.584D+00 0.127D+01-0.148D+01
 Coeff-Com:  0.173D+01
 Coeff:      0.158D-02-0.186D-01 0.826D-01-0.584D+00 0.127D+01-0.148D+01
 Coeff:      0.173D+01
 Gap=     0.602 Goal=   None    Shift=    0.000
 RMSDP=3.08D-06 MaxDP=1.10D-05 DE=-2.09D-11 OVMax= 1.25D-05

 Cycle   8  Pass 1  IDiag  3:
 E=-0.850201499821743E-01 Delta-E=       -0.000000000016 Rises=F Damp=F
 DIIS: error= 7.59D-07 at cycle   8 NSaved=   8.
 NSaved= 8 IEnMin= 8 EnMin=-0.850201499821743E-01 IErMin= 8 ErrMin= 7.59D-07
 ErrMax= 7.59D-07  0.00D+00 EMaxC= 1.00D-01 BMatC= 6.65D-12 BMatP= 1.04D-11
 IDIUse=1 WtCom= 1.00D+00 WtEn= 0.00D+00
 Coeff-Com: -0.549D-03 0.644D-02-0.282D-01 0.200D+00-0.439D+00 0.516D+00
 Coeff-Com: -0.626D+00 0.137D+01
 Coeff:     -0.549D-03 0.644D-02-0.282D-01 0.200D+00-0.439D+00 0.516D+00
 Coeff:     -0.626D+00 0.137D+01
 Gap=     0.602 Goal=   None    Shift=    0.000
 RMSDP=1.88D-06 MaxDP=6.79D-06 DE=-1.57D-11 OVMax= 7.67D-06

 Cycle   9  Pass 1  IDiag  3:
 E=-0.850201500064998E-01 Delta-E=       -0.000000000024 Rises=F Damp=F
 DIIS: error= 2.70D-07 at cycle   9 NSaved=   9.
 NSaved= 9 IEnMin= 9 EnMin=-0.850201500064998E-01 IErMin= 9 ErrMin= 2.70D-07
 ErrMax= 2.70D-07  0.00D+00 EMaxC= 1.00D-01 BMatC= 8.61D-13 BMatP= 6.65D-12
 IDIUse=1 WtCom= 1.00D+00 WtEn= 0.00D+00
 Large coefficients: NSaved=  9 BigCof=    0.00 CofMax=   10.00 Det=-6.62D-24
 Inversion failed.  Reducing to  8 matrices.
 Large coefficients: NSaved=  8 BigCof=  847.08 CofMax=   10.00 Det=-2.22D-21
 Inversion failed.  Reducing to  7 matrices.
 Coeff-Com:  0.685D-04-0.503D-03 0.493D-03 0.164D-02-0.330D-01 0.416D+00
 Coeff-Com:  0.615D+00
 Coeff:      0.685D-04-0.503D-03 0.493D-03 0.164D-02-0.330D-01 0.416D+00
 Coeff:      0.615D+00
 Gap=     0.602 Goal=   None    Shift=    0.000
 RMSDP=4.99D-07 MaxDP=1.80D-06 DE=-2.43D-11 OVMax= 2.03D-06

 Cycle  10  Pass 1  IDiag  3:
 E=-0.850201500102017E-01 Delta-E=       -0.000000000004 Rises=F Damp=F
 DIIS: error= 3.06D-09 at cycle  10 NSaved=   8.
 NSaved= 8 IEnMin= 8 EnMin=-0.850201500102017E-01 IErMin= 8 ErrMin= 3.06D-09
 ErrMax= 3.06D-09  0.00D+00 EMaxC= 1.00D-01 BMatC= 1.71D-16 BMatP= 8.61D-13
 IDIUse=1 WtCom= 1.00D+00 WtEn= 0.00D+00
 Coeff-Com:  0.414D-06-0.376D-06-0.129D-04 0.220D-02 0.487D-03-0.800D-01
 Coeff-Com: -0.233D+00 0.131D+01
 Coeff:      0.414D-06-0.376D-06-0.129D-04 0.220D-02 0.487D-03-0.800D-01
 Coeff:     -0.233D+00 0.131D+01
 Gap=     0.602 Goal=   None    Shift=    0.000
 RMSDP=5.66D-09 MaxDP=1.64D-08 DE=-3.70D-12 OVMax= 1.83D-08

 Cycle  11  Pass 2  IDiag  1:
 SCF Done:  E(RPM3) = -0.850201500102E-01 A.U. after   11 cycles
            NFock= 10  Conv=0.57D-08     -V/T= 0.9855
 KE=-5.856392059424D+00 PE=-2.303197397282D+01 EE= 1.145852465013D+01
 Leave Link  502 at Sat Dec 12 23:28:43 2015, MaxMem=    33554432 cpu:         0.0
 (Enter /home_nfs/ilm/allouche/Softwares/G09DCorr2/g09/l801.exe)
 Range of M.O.s used for correlation:     1     6
 NBasis=     6 NAE=     4 NBE=     4 NFC=     0 NFV=     0
 NROrb=      6 NOA=     4 NOB=     4 NVA=     2 NVB=     2
 Leave Link  801 at Sat Dec 12 23:28:45 2015, MaxMem=    33554432 cpu:         1.3
 (Enter /home_nfs/ilm/allouche/Softwares/G09DCorr2/g09/l1101.exe)
 Using compressed storage, NAtomX=     3.
 Will process      4 centers per pass.
 Leave Link 1101 at Sat Dec 12 23:28:46 2015, MaxMem=    33554432 cpu:         0.4
 (Enter /home_nfs/ilm/allouche/Softwares/G09DCorr2/g09/l1102.exe)
 Symmetrizing basis deriv contribution to polar:
 IMax=3 JMax=2 DiffMx= 0.00D+00
 Leave Link 1102 at Sat Dec 12 23:28:46 2015, MaxMem=    33554432 cpu:         0.0
 (Enter /home_nfs/ilm/allouche/Softwares/G09DCorr2/g09/l1110.exe)
 Forming Gx(P) for the SCF density, NAtomX=     3.
 Integral derivatives from FoFJK, PRISM(SPDF).
 Do as many integral derivatives as possible in FoFJK.
 G2DrvN: MDV=      33495413.
 G2DrvN: will do     4 centers at a time, making    1 passes.
 Calling FoFCou, ICntrl=  3107 FMM=F I1Cent=   0 AccDes= 0.00D+00.
 FoFJK:  IHMeth= 9 ICntrl=    3107 DoSepK=F KAlg= 0 I1Cent=   0 FoldK=F
 IRaf=         0 NMat=   1 IRICut=       1 DoRegI=T DoRafI=F ISym2E= 0.
 FoFCou: FMM=F IPFlag=           0 FMFlag=      100000 FMFlg1=           0
         NFxFlg=           0 DoJE=F BraDBF=F KetDBF=F FulRan=T
         wScrn=  0.000000 ICntrl=    3107 IOpCl=  0 I1Cent=           0 NGrid=           0
         NMat0=    1 NMatS0=      1 NMatT0=    0 NMatD0=    1 NMtDS0=    0 NMtDT0=    0
 Symmetry not used in FoFCou.
 End of G2Drv F.D. properties file   721 does not exist.
 End of G2Drv F.D. properties file   722 does not exist.
 End of G2Drv F.D. properties file   788 does not exist.
 Leave Link 1110 at Sat Dec 12 23:28:47 2015, MaxMem=    33554432 cpu:         0.5
 (Enter /home_nfs/ilm/allouche/Softwares/G09DCorr2/g09/l1002.exe)
 Minotr:  Closed shell wavefunction.
          IDoAtm=111
          Direct CPHF calculation.
          Differentiating once with respect to electric field.
                with respect to dipole field.
          Differentiating once with respect to nuclear coordinates.
          Electric field/nuclear overlap derivatives assumed to be zero.
          Using symmetry in CPHF.
          Requested convergence is 1.0D-08 RMS, and 1.0D-07 maximum.
          NewPWx=T KeepS1=F KeepF1=F KeepIn=T MapXYZ=F SortEE=F KeepMc=T.
          MDV=      33495501 using IRadAn=       2.
 Keep J ints in memory in canonical form, NReq=864537.
 FoFCou: FMM=F IPFlag=           0 FMFlag=           0 FMFlg1=           0
         NFxFlg=           0 DoJE=F BraDBF=F KetDBF=F FulRan=T
         wScrn=  0.000000 ICntrl=     600 IOpCl=  2 I1Cent=           0 NGrid=           0
         NMat0=    1 NMatS0=     12 NMatT0=    0 NMatD0=    1 NMtDS0=    0 NMtDT0=    0
 Symmetry not used in FoFCou.
          Solving linear equations separately, MaxMat=       0.
          There are    12 degrees of freedom in the 1st order CPHF.  IDoFFX=5 NUNeed=    12.
 LinEq1:  Iter=  0 NonCon=    12 RMS=3.93D-01 Max=7.89D-01 NDo=    12
 AX will form    12 AO Fock derivatives at one time.
 LinEq1:  Iter=  1 NonCon=    12 RMS=1.28D-02 Max=3.35D-02 NDo=    12
 LinEq1:  Iter=  2 NonCon=     8 RMS=1.08D-03 Max=2.18D-03 NDo=    12
 LinEq1:  Iter=  3 NonCon=     6 RMS=1.06D-05 Max=1.93D-05 NDo=    12
 LinEq1:  Iter=  4 NonCon=     4 RMS=8.08D-07 Max=1.33D-06 NDo=    12
 LinEq1:  Iter=  5 NonCon=     0 RMS=2.06D-09 Max=4.04D-09 NDo=    12
 Linear equations converged to 1.000D-08 1.000D-07 after     5 iterations.
 FullF1:  Do perturbations    1 to     3.
 Isotropic polarizability for W=    0.000000        3.38 Bohr**3.
 End of Minotr F.D. properties file   721 does not exist.
 End of Minotr F.D. properties file   722 does not exist.
 End of Minotr F.D. properties file   788 does not exist.
 Leave Link 1002 at Sat Dec 12 23:28:48 2015, MaxMem=    33554432 cpu:         0.4
 (Enter /home_nfs/ilm/allouche/Softwares/G09DCorr2/g09/l601.exe)
 Copying SCF densities to generalized density rwf, IOpCl= 0 IROHF=0.

 **********************************************************************

            Population analysis using the SCF density.

 **********************************************************************

 Orbital symmetries:
       Occupied  (A') (A') (A') (A")
       Virtual   (A') (A')
 The electronic state is 1-A'.
 Alpha  occ. eigenvalues --   -1.35323  -0.64609  -0.53372  -0.45263
 Alpha virt. eigenvalues --    0.14915   0.19593
          Condensed to atoms (all electrons):
               1          2          3
     1  O    6.358586   0.000000   0.000000
     2  H    0.000000   0.820707   0.000000
     3  H    0.000000   0.000000   0.820707
 Mulliken charges:
               1
     1  O   -0.358586
     2  H    0.179293
     3  H    0.179293
 Sum of Mulliken charges =   0.00000
 Mulliken charges with hydrogens summed into heavy atoms:
               1
     1  O    0.000000
 APT charges:
               1
     1  O   -0.378138
     2  H    0.189068
     3  H    0.189070
 Sum of APT charges =   0.00000
 APT charges with hydrogens summed into heavy atoms:
               1
     1  O    0.000000
 Charge=              0.0000 electrons
 Dipole moment (field-independent basis, Debye):
    X=             -0.0001    Y=             -1.7385    Z=              0.0000  Tot=              1.7385
 N-N= 1.734482123210D+01 E-N=-2.303197396215D+01  KE=-5.856392059424D+00
 Symmetry A'   KE=-4.946736930196D+00
 Symmetry A"   KE=-9.096551292281D-01
  Exact polarizability:   6.471  -0.001   3.321   0.000   0.000   0.347
 Approx polarizability:   3.882   0.000   1.944   0.000   0.000   0.131
 Leave Link  601 at Sat Dec 12 23:28:48 2015, MaxMem=    33554432 cpu:         0.0
 (Enter /home_nfs/ilm/allouche/Softwares/G09DCorr2/g09/l701.exe)
 Compute integral second derivatives.
 ... and contract with generalized density number  0.
 Leave Link  701 at Sat Dec 12 23:28:50 2015, MaxMem=    33554432 cpu:         1.3
 (Enter /home_nfs/ilm/allouche/Softwares/G09DCorr2/g09/l702.exe)
 L702 exits ... SP integral derivatives will be done elsewhere.
 Leave Link  702 at Sat Dec 12 23:28:51 2015, MaxMem=    33554432 cpu:         0.3
 (Enter /home_nfs/ilm/allouche/Softwares/G09DCorr2/g09/l703.exe)
 Compute integral second derivatives, UseDBF=F ICtDFT=           0.
 Integral derivatives from FoFJK, PRISM(SPDF).
 Calling FoFJK, ICntrl=    100127 FMM=F ISym2X=1 I1Cent= 0 IOpClX= 0 NMat=1 NMatS=1 NMatT=0.
 FoFJK:  IHMeth= 9 ICntrl=  100127 DoSepK=F KAlg= 0 I1Cent=   0 FoldK=F
 IRaf=         0 NMat=   1 IRICut=       1 DoRegI=T DoRafI=F ISym2E= 1.
 FoFCou: FMM=F IPFlag=           0 FMFlag=      100000 FMFlg1=         800
         NFxFlg=           0 DoJE=F BraDBF=F KetDBF=F FulRan=T
         wScrn=  0.000000 ICntrl=  100127 IOpCl=  0 I1Cent=           0 NGrid=           0
         NMat0=    1 NMatS0=      1 NMatT0=    0 NMatD0=    1 NMtDS0=    0 NMtDT0=    0
 Symmetry not used in FoFCou.
 Leave Link  703 at Sat Dec 12 23:28:51 2015, MaxMem=    33554432 cpu:         0.0
 (Enter /home_nfs/ilm/allouche/Softwares/G09DCorr2/g09/l716.exe)
 Dipole        =-2.74106147D-05-6.83991017D-01-6.49629225D-17
 Polarizability= 6.47112517D+00-6.41125696D-04 3.32134187D+00
                -1.08586816D-15 7.67315413D-17 3.46907027D-01
 HyperPolar    =-1.73571846D-04-1.27026598D+01 1.88812703D-03
                -5.85395001D+00-6.02479226D-15 6.94231918D-15
                -1.89024781D-15-4.52373280D-05-7.89962980D-01
                -5.56074100D-15
 Full mass-weighted force constant matrix:
 Low frequencies ---   -0.0025    0.0000    0.0000    8.8240   32.3252   40.1228
 Low frequencies --- 1742.4304 3867.4127 3987.9235
 Diagonal vibrational polarizability:
        0.0116608       0.1333374       0.0000000
 Harmonic frequencies (cm**-1), IR intensities (KM/Mole), Raman scattering
 activities (A**4/AMU), depolarization ratios for plane and unpolarized
 incident light, reduced masses (AMU), force constants (mDyne/A),
 and normal coordinates:
                      1                      2                      3
                     A'                     A'                     A'
 Frequencies --   1742.4303              3867.4127              3987.9235
 Red. masses --      1.0896                 1.0850                 1.0388
 Frc consts  --      1.9491                 9.5616                 9.7337
 IR Inten    --     13.8592                 6.4809                 6.2000
  Atom  AN      X      Y      Z        X      Y      Z        X      Y      Z
     1   8     0.00   0.07   0.00     0.07   0.00   0.00     0.00   0.05   0.00
     2   1    -0.39  -0.59   0.00    -0.57   0.42   0.00     0.61  -0.36   0.00
     3   1     0.39  -0.59   0.00    -0.57  -0.41   0.00    -0.61  -0.36   0.00

 -------------------
 - Thermochemistry -
 -------------------
 Temperature   298.150 Kelvin.  Pressure   1.00000 Atm.
 Atom     1 has atomic number  8 and mass  15.99491
 Atom     2 has atomic number  1 and mass   1.00783
 Atom     3 has atomic number  1 and mass   1.00783
 Molecular mass:    18.01056 amu.
 Principal axes and moments of inertia in atomic units:
                           1         2         3
     Eigenvalues --     2.01142   4.24497   6.25639
           X            1.00000   0.00014   0.00000
           Y           -0.00014   1.00000   0.00000
           Z            0.00000   0.00000   1.00000
 This molecule is an asymmetric top.
 Rotational symmetry number  1.
 Rotational temperatures (Kelvin)     43.06097    20.40389    13.84406
 Rotational constants (GHZ):         897.24603   425.14854   288.46371
 Zero-point vibrational energy      57407.4 (Joules/Mol)
                                   13.72070 (Kcal/Mol)
 Vibrational temperatures:   2506.97  5564.34  5737.73
          (Kelvin)
 
 Zero-point correction=                           0.021865 (Hartree/Particle)
 Thermal correction to Energy=                    0.024700
 Thermal correction to Enthalpy=                  0.025644
 Thermal correction to Gibbs Free Energy=         0.003613
 Sum of electronic and zero-point Energies=             -0.063155
 Sum of electronic and thermal Energies=                -0.060321
 Sum of electronic and thermal Enthalpies=              -0.059376
 Sum of electronic and thermal Free Energies=           -0.081407
 
                     E (Thermal)             CV                S
                      KCal/Mol        Cal/Mol-Kelvin    Cal/Mol-Kelvin
 Total                   15.499              5.993             46.368
 Electronic               0.000              0.000              0.000
 Translational            0.889              2.981             34.608
 Rotational               0.889              2.981             11.756
 Vibrational             13.722              0.031              0.004
                       Q            Log10(Q)             Ln(Q)
 Total Bot       0.217877D-01         -1.661788         -3.826408
 Total V=0       0.248622D+09          8.395540         19.331446
 Vib (Bot)       0.876534D-10        -10.057231        -23.157631
 Vib (V=0)       0.100022D+01          0.000097          0.000223
 Electronic      0.100000D+01          0.000000          0.000000
 Translational   0.300432D+07          6.477746         14.915562
 Rotational      0.827365D+02          1.917697          4.415661
 
                                                                 TEST
                                                             IR Spectrum
 
     3   3                                                                   1                                                       
     9   8                                                                   7                                                       
     8   6                                                                   4                                                       
     8   7                                                                   2                                                       
 
     X   X                                                                   X                                                       
     X   X                                                                   X                                                       
     X   X                                                                   X                                                       
     X   X                                                                   X                                                       
     X   X                                                                   X                                                       
     X   X                                                                   X                                                       
     X   X                                                                   X                                                       
     X   X                                                                   X                                                       
     X   X                                                                   X                                                       
                                                                             X                                                       
                                                                             X                                                       
                                                                             X                                                       
                                                                             X                                                       
                                                                             X                                                       
                                                                             X                                                       
                                                                             X                                                       
                                                                             X                                                       
                                                                             X                                                       
                                                                             X                                                       
                                                                             X                                                       
 
 ***** Axes restored to original set *****
 -------------------------------------------------------------------
 Center     Atomic                   Forces (Hartrees/Bohr)
 Number     Number              X              Y              Z
 -------------------------------------------------------------------
      1        8           0.000054156    0.000020151    0.000000000
      2        1          -0.000104960   -0.000029856    0.000000000
      3        1           0.000050804    0.000009704    0.000000000
 -------------------------------------------------------------------
 Cartesian Forces:  Max     0.000104960 RMS     0.000044624
 Z-matrix is all fixed cartesians, so copy forces.
 Force constants in Cartesian coordinates: 
                1             2             3             4             5 
      1  0.687458D+00
      2 -0.106728D-03  0.453557D+00
      3  0.000000D+00  0.000000D+00  0.190088D-04
      4 -0.343674D+00 -0.208582D+00  0.000000D+00  0.405306D+00
      5 -0.251015D+00 -0.226754D+00  0.000000D+00  0.229799D+00  0.205087D+00
      6  0.000000D+00  0.000000D+00 -0.281628D-04  0.000000D+00  0.000000D+00
      7 -0.343784D+00  0.208689D+00  0.000000D+00 -0.616316D-01  0.212158D-01
      8  0.251121D+00 -0.226803D+00  0.000000D+00 -0.212171D-01  0.216668D-01
      9  0.000000D+00  0.000000D+00  0.915407D-05  0.000000D+00  0.000000D+00
                6             7             8             9 
      6  0.502438D-04
      7  0.000000D+00  0.405415D+00
      8  0.000000D+00 -0.229904D+00  0.205137D+00
      9 -0.220810D-04  0.000000D+00  0.000000D+00  0.129269D-04
 Leave Link  716 at Sat Dec 12 23:28:51 2015, MaxMem=    33554432 cpu:         0.0
 (Enter /home_nfs/ilm/allouche/Softwares/G09DCorr2/g09/l103.exe)

 GradGradGradGradGradGradGradGradGradGradGradGradGradGradGradGradGradGrad
 Berny optimization.
 Search for a local minimum.
 Step number   1 out of a maximum of    2
 All quantities printed in internal units (Hartrees-Bohrs-Radians)
 Second derivative matrix not updated -- analytic derivatives used.
 The second derivative matrix:
                          X1        Y1        Z1        X2        Y2
           X1           0.68746
           Y1          -0.00011   0.45356
           Z1           0.00000   0.00000   0.00002
           X2          -0.34367  -0.20858   0.00000   0.40531
           Y2          -0.25101  -0.22675   0.00000   0.22980   0.20509
           Z2           0.00000   0.00000  -0.00003   0.00000   0.00000
           X3          -0.34378   0.20869   0.00000  -0.06163   0.02122
           Y3           0.25112  -0.22680   0.00000  -0.02122   0.02167
           Z3           0.00000   0.00000   0.00001   0.00000   0.00000
                          Z2        X3        Y3        Z3
           Z2           0.00005
           X3           0.00000   0.40542
           Y3           0.00000  -0.22990   0.20514
           Z3          -0.00002   0.00000   0.00000   0.00001
 ITU=  0
     Eigenvalues ---    0.18253   0.84568   1.01684
 Angle between quadratic step and forces=  41.91 degrees.
 ClnCor:  largest displacement from symmetrization is 2.71D-20 for atom     3.
 Linear search not attempted -- first point.
 ClnCor:  largest displacement from symmetrization is 5.55D-17 for atom     2.
 TrRot=  0.000013 -0.000040  0.000000  0.000003  0.000000  0.000003
 Variable       Old X    -DE/DX   Delta X   Delta X   Delta X     New X
                                 (Linear)    (Quad)   (Total)
    X1       -0.00002   0.00005   0.00000   0.00003   0.00004   0.00003
    Y1       -0.71991   0.00002   0.00000  -0.00008  -0.00012  -0.72004
    Z1        0.00000   0.00000   0.00000   0.00000   0.00000   0.00000
    X2        1.45125  -0.00010   0.00000  -0.00028  -0.00027   1.45097
    Y2        0.34014  -0.00003   0.00000   0.00008   0.00005   0.34019
    Z2        0.00000   0.00000   0.00000   0.00000   0.00000   0.00000
    X3       -1.45117   0.00005   0.00000   0.00022   0.00023  -1.45094
    Y3        0.34008   0.00001   0.00000   0.00013   0.00008   0.34016
    Z3        0.00000   0.00000   0.00000   0.00000   0.00000   0.00000
         Item               Value     Threshold  Converged?
 Maximum Force            0.000105     0.000450     YES
 RMS     Force            0.000045     0.000300     YES
 Maximum Displacement     0.000272     0.001800     YES
 RMS     Displacement     0.000129     0.001200     YES
 Predicted change in Energy=-1.969733D-08
 Optimization completed.
    -- Stationary point found.
 GradGradGradGradGradGradGradGradGradGradGradGradGradGradGradGradGradGrad

 Leave Link  103 at Sat Dec 12 23:28:52 2015, MaxMem=    33554432 cpu:         0.2
 (Enter /home_nfs/ilm/allouche/Softwares/G09DCorr2/g09/l9999.exe)
 1\1\GINC-P2CHPD-LOGIN3\Freq\RPM3\ZDO\H2O1\ALLOUCHE\12-Dec-2015\0\\#P P
 M3 FREQ\\TEST\\0,1\O,-0.00001,-0.380962,0.\H,0.767966,0.179996,0.\H,-0
 .767926,0.179964,0.\\Version=EM64L-G09RevD.01\State=1-A'\HF=-0.0850202
 \RMSD=5.663e-09\RMSF=4.462e-05\ZeroPoint=0.0218653\Thermal=0.0246996\D
 ipole=0.0000092,0.683991,0.\DipoleDeriv=-0.2973073,-0.0000025,0.,0.000
 0033,-0.1918483,0.,0.,0.,-0.6452583,0.1486597,0.0027548,0.,-0.1270812,
 0.0959244,0.,0.,0.,0.3226197,0.1486475,-0.0027524,0.,0.1270779,0.09592
 37,0.,0.,0.,0.3226386\Polar=6.4711252,0.0004727,3.3213418,0.,0.,0.3469
 07\HyperPolar=0.0018645,12.7026599,0.0008425,5.8539498,0.,0.,0.,-0.000
 003,0.789963,0.\PG=CS [SG(H2O1)]\NImag=0\\0.68745815,-0.00010673,0.453
 55718,0.,0.,0.00001901,-0.34367438,-0.20858184,0.,0.40530600,-0.251014
 74,-0.22675378,0.,0.22979897,0.20508697,0.,0.,-0.00002816,0.,0.,0.0000
 5024,-0.34378377,0.20868856,0.,-0.06163163,0.02121577,0.,0.40541539,0.
 25112146,-0.22680341,0.,-0.02121712,0.02166680,0.,-0.22990433,0.205136
 63,0.,0.,0.00000915,0.,0.,-0.00002208,0.,0.,0.00001293\\-0.00005416,-0
 .00002015,0.,0.00010496,0.00002986,0.,-0.00005080,-0.00000970,0.\\\@


 Statistics are no substitute for judgment.
                            -- Henry Clay
 Job cpu time:       0 days  0 hours  0 minutes 15.7 seconds.
 File lengths (MBytes):  RWF=      5 Int=      0 D2E=      0 Chk=      2 Scr=      1
 Normal termination of Gaussian 09 at Sat Dec 12 23:28:52 2015.
