 Entering Gaussian System, Link 0=/pbs/throng/ilm/sl6/allouche/Gaussian09D/g09/g09
 Initial command:
 /pbs/throng/ilm/sl6/allouche/Gaussian09D/g09/l1.exe "/scratch/3150749.1.mc_longlasting/Gau-195718.inp" -scrdir="/scratch/3150749.1.mc_longlasting/"
 Entering Link 1 = /pbs/throng/ilm/sl6/allouche/Gaussian09D/g09/l1.exe PID=    195720.
  
 Copyright (c) 1988,1990,1992,1993,1995,1998,2003,2009,2013,
            Gaussian, Inc.  All Rights Reserved.
  
 This is part of the Gaussian(R) 09 program.  It is based on
 the Gaussian(R) 03 system (copyright 2003, Gaussian, Inc.),
 the Gaussian(R) 98 system (copyright 1998, Gaussian, Inc.),
 the Gaussian(R) 94 system (copyright 1995, Gaussian, Inc.),
 the Gaussian 92(TM) system (copyright 1992, Gaussian, Inc.),
 the Gaussian 90(TM) system (copyright 1990, Gaussian, Inc.),
 the Gaussian 88(TM) system (copyright 1988, Gaussian, Inc.),
 the Gaussian 86(TM) system (copyright 1986, Carnegie Mellon
 University), and the Gaussian 82(TM) system (copyright 1983,
 Carnegie Mellon University). Gaussian is a federally registered
 trademark of Gaussian, Inc.
  
 This software contains proprietary and confidential information,
 including trade secrets, belonging to Gaussian, Inc.
  
 This software is provided under written license and may be
 used, copied, transmitted, or stored only in accord with that
 written license.
  
 The following legend is applicable only to US Government
 contracts under FAR:
  
                    RESTRICTED RIGHTS LEGEND
  
 Use, reproduction and disclosure by the US Government is
 subject to restrictions as set forth in subparagraphs (a)
 and (c) of the Commercial Computer Software - Restricted
 Rights clause in FAR 52.227-19.
  
 Gaussian, Inc.
 340 Quinnipiac St., Bldg. 40, Wallingford CT 06492
  
  
 ---------------------------------------------------------------
 Warning -- This program may not be used in any manner that
 competes with the business of Gaussian, Inc. or will provide
 assistance to any competitor of Gaussian, Inc.  The licensee
 of this program is prohibited from giving any competitor of
 Gaussian, Inc. access to this program.  By using this program,
 the user acknowledges that Gaussian, Inc. is engaged in the
 business of creating and licensing software in the field of
 computational chemistry and represents and warrants to the
 licensee that it is not a competitor of Gaussian, Inc. and that
 it will not use this program in any manner prohibited above.
 ---------------------------------------------------------------
  

 Cite this work as:
 Gaussian 09, Revision D.01,
 M. J. Frisch, G. W. Trucks, H. B. Schlegel, G. E. Scuseria, 
 M. A. Robb, J. R. Cheeseman, G. Scalmani, V. Barone, B. Mennucci, 
 G. A. Petersson, H. Nakatsuji, M. Caricato, X. Li, H. P. Hratchian, 
 A. F. Izmaylov, J. Bloino, G. Zheng, J. L. Sonnenberg, M. Hada, 
 M. Ehara, K. Toyota, R. Fukuda, J. Hasegawa, M. Ishida, T. Nakajima, 
 Y. Honda, O. Kitao, H. Nakai, T. Vreven, J. A. Montgomery, Jr., 
 J. E. Peralta, F. Ogliaro, M. Bearpark, J. J. Heyd, E. Brothers, 
 K. N. Kudin, V. N. Staroverov, T. Keith, R. Kobayashi, J. Normand, 
 K. Raghavachari, A. Rendell, J. C. Burant, S. S. Iyengar, J. Tomasi, 
 M. Cossi, N. Rega, J. M. Millam, M. Klene, J. E. Knox, J. B. Cross, 
 V. Bakken, C. Adamo, J. Jaramillo, R. Gomperts, R. E. Stratmann, 
 O. Yazyev, A. J. Austin, R. Cammi, C. Pomelli, J. W. Ochterski, 
 R. L. Martin, K. Morokuma, V. G. Zakrzewski, G. A. Voth, 
 P. Salvador, J. J. Dannenberg, S. Dapprich, A. D. Daniels, 
 O. Farkas, J. B. Foresman, J. V. Ortiz, J. Cioslowski, 
 and D. J. Fox, Gaussian, Inc., Wallingford CT, 2013.
 
 ******************************************
 Gaussian 09:  EM64L-G09RevD.01 24-Apr-2013
                10-Apr-2019 
 ******************************************
 %Nproc=8
 Will use up to    8 processors via shared memory.
 ---------------------------
 #B3LYP/6-31+G force Pop=NPA
 ---------------------------
 1/10=7,30=1,38=1/1,3;
 2/12=2,17=6,18=5,40=1/2;
 3/5=1,6=6,7=10,11=2,16=1,25=1,30=1,71=1,74=-5/1,2,3;
 4//1;
 5/5=2,38=5/2;
 6/7=2,8=2,9=2,10=2,28=1,40=-1/1,7;
 7/29=1/1,2,3,16;
 1/10=7,30=1/3;
 99//99;
 -------
 xGabCom
 -------
 Symbolic Z-matrix:
 Charge =  0 Multiplicity = 1
 O                     0.        0.        0. 
 O                     0.        0.        3.2972 
 O                     0.        0.       -3.2972 
 Al                    0.        0.       -1.68789 
 Al                    0.        0.        1.68789 
 

 GradGradGradGradGradGradGradGradGradGradGradGradGradGradGradGradGradGrad
 Berny optimization.
 Initialization pass.
 Trust Radius=3.00D-01 FncErr=1.00D-07 GrdErr=1.00D-07
 Number of steps in this run=      2 maximum allowed number of steps=      2.
 GradGradGradGradGradGradGradGradGradGradGradGradGradGradGradGradGradGrad

                          Input orientation:                          
 ---------------------------------------------------------------------
 Center     Atomic      Atomic             Coordinates (Angstroms)
 Number     Number       Type             X           Y           Z
 ---------------------------------------------------------------------
      1          8           0        0.000000    0.000000    0.000000
      2          8           0        0.000000    0.000000    3.297203
      3          8           0        0.000000    0.000000   -3.297203
      4         13           0        0.000000    0.000000   -1.687891
      5         13           0        0.000000    0.000000    1.687891
 ---------------------------------------------------------------------
                    Distance matrix (angstroms):
                    1          2          3          4          5
     1  O    0.000000
     2  O    3.297203   0.000000
     3  O    3.297203   6.594406   0.000000
     4  Al   1.687891   4.985094   1.609312   0.000000
     5  Al   1.687891   1.609312   4.985094   3.375782   0.000000
 Stoichiometry    Al2O3
 Framework group  D*H[O(O),C*(OAl.AlO)]
 Deg. of freedom     2
 Full point group                 D*H     NOp   8
 Largest Abelian subgroup         D2H     NOp   8
 Largest concise Abelian subgroup C2      NOp   2
                         Standard orientation:                         
 ---------------------------------------------------------------------
 Center     Atomic      Atomic             Coordinates (Angstroms)
 Number     Number       Type             X           Y           Z
 ---------------------------------------------------------------------
      1          8           0        0.000000    0.000000    0.000000
      2          8           0        0.000000    0.000000    3.297203
      3          8           0        0.000000    0.000000   -3.297203
      4         13           0        0.000000    0.000000   -1.687891
      5         13           0        0.000000    0.000000    1.687891
 ---------------------------------------------------------------------
 Rotational constants (GHZ):      0.0000000      1.0076977      1.0076977
 Standard basis: 6-31+G (6D, 7F)
 There are    20 symmetry adapted cartesian basis functions of AG  symmetry.
 There are     0 symmetry adapted cartesian basis functions of B1G symmetry.
 There are     7 symmetry adapted cartesian basis functions of B2G symmetry.
 There are     7 symmetry adapted cartesian basis functions of B3G symmetry.
 There are     0 symmetry adapted cartesian basis functions of AU  symmetry.
 There are    19 symmetry adapted cartesian basis functions of B1U symmetry.
 There are    10 symmetry adapted cartesian basis functions of B2U symmetry.
 There are    10 symmetry adapted cartesian basis functions of B3U symmetry.
 There are    20 symmetry adapted basis functions of AG  symmetry.
 There are     0 symmetry adapted basis functions of B1G symmetry.
 There are     7 symmetry adapted basis functions of B2G symmetry.
 There are     7 symmetry adapted basis functions of B3G symmetry.
 There are     0 symmetry adapted basis functions of AU  symmetry.
 There are    19 symmetry adapted basis functions of B1U symmetry.
 There are    10 symmetry adapted basis functions of B2U symmetry.
 There are    10 symmetry adapted basis functions of B3U symmetry.
    73 basis functions,   178 primitive gaussians,    73 cartesian basis functions
    25 alpha electrons       25 beta electrons
       nuclear repulsion energy       207.8562170643 Hartrees.
 NAtoms=    5 NActive=    5 NUniq=    3 SFac= 2.78D+00 NAtFMM=   60 NAOKFM=F Big=F
 Integral buffers will be    131072 words long.
 Raffenetti 2 integral format.
 Two-electron integral symmetry is turned on.
 One-electron integrals computed using PRISM.
 NBasis=    73 RedAO= T EigKep=  7.86D-04  NBF=    20     0     7     7     0    19    10    10
 NBsUse=    73 1.00D-06 EigRej= -1.00D+00 NBFU=    20     0     7     7     0    19    10    10
 ExpMin= 3.18D-02 ExpMax= 1.40D+04 ExpMxC= 2.10D+03 IAcc=3 IRadAn=         5 AccDes= 0.00D+00
 Harris functional with IExCor=  402 and IRadAn=       5 diagonalized for initial guess.
 HarFok:  IExCor=  402 AccDes= 0.00D+00 IRadAn=         5 IDoV= 1 UseB2=F ITyADJ=14
 ICtDFT=  3500011 ScaDFX=  1.000000  1.000000  1.000000  1.000000
 FoFCou: FMM=F IPFlag=           0 FMFlag=      100000 FMFlg1=           0
         NFxFlg=           0 DoJE=T BraDBF=F KetDBF=T FulRan=T
         wScrn=  0.000000 ICntrl=     500 IOpCl=  0 I1Cent=   200000004 NGrid=           0
         NMat0=    1 NMatS0=      1 NMatT0=    0 NMatD0=    1 NMtDS0=    0 NMtDT0=    0
 Petite list used in FoFCou.
 Initial guess orbital symmetries:
       Occupied  (SGG) (SGU) (SGG) (SGU) (SGG) (SGU) (SGG) (SGU)
                 (SGG) (PIG) (PIG) (PIU) (PIU) (SGG) (SGU) (SGG)
                 (SGU) (PIU) (PIU) (SGG) (SGU) (PIG) (PIG) (PIU)
                 (PIU)
       Virtual   (SGG) (SGU) (PIU) (PIU) (PIG) (PIG) (SGG) (SGU)
                 (SGG) (PIU) (PIU) (PIG) (PIG) (SGU) (SGG) (PIU)
                 (PIU) (SGU) (SGG) (PIG) (PIG) (SGU) (SGG) (PIU)
                 (PIU) (PIU) (PIU) (SGU) (PIG) (PIG) (SGG) (SGU)
                 (SGG) (SGU) (SGG) (SGU) (PIU) (PIU) (PIG) (PIG)
                 (PIU) (PIU) (SGG) (SGU) (SGU) (SGG) (SGG) (SGU)
 The electronic state of the initial guess is 1-SGG.
 Keep R1 ints in memory in symmetry-blocked form, NReq=4588805.
 Requested convergence on RMS density matrix=1.00D-08 within 128 cycles.
 Requested convergence on MAX density matrix=1.00D-06.
 Requested convergence on             energy=1.00D-06.
 No special actions if energy rises.
 EnCoef did     2 forward-backward iterations
 EnCoef did     2 forward-backward iterations
 SCF Done:  E(RB3LYP) =  -710.532694534     A.U. after   12 cycles
            NFock= 12  Conv=0.64D-08     -V/T= 2.0038

 **********************************************************************

            Population analysis using the SCF density.

 **********************************************************************

 Orbital symmetries:
       Occupied  (SGG) (SGU) (SGG) (SGU) (SGG) (SGU) (SGG) (PIG)
                 (PIG) (PIU) (PIU) (SGU) (SGG) (SGG) (SGU) (SGG)
                 (SGU) (PIU) (PIU) (SGG) (SGU) (PIG) (PIG) (PIU)
                 (PIU)
       Virtual   (SGG) (SGU) (PIG) (PIG) (PIU) (PIU) (SGG) (SGG)
                 (SGU) (PIU) (PIU) (PIG) (PIG) (SGU) (SGG) (PIU)
                 (PIU) (SGU) (SGG) (PIG) (PIG) (PIU) (PIU) (SGU)
                 (SGG) (PIG) (PIG) (PIU) (PIU) (SGU) (SGG) (SGU)
                 (SGG) (SGG) (SGU) (SGU) (PIU) (PIU) (PIG) (PIG)
                 (PIU) (PIU) (SGG) (SGU) (SGU) (SGG) (SGG) (SGU)
 The electronic state is 1-SGG.
 Alpha  occ. eigenvalues --  -56.12716 -56.12716 -19.21927 -19.13298 -19.13297
 Alpha  occ. eigenvalues --   -4.22725  -4.22724  -2.78017  -2.78017  -2.78017
 Alpha  occ. eigenvalues --   -2.78017  -2.77808  -2.77807  -1.02626  -0.90905
 Alpha  occ. eigenvalues --   -0.90805  -0.55318  -0.42375  -0.42375  -0.35013
 Alpha  occ. eigenvalues --   -0.33993  -0.30068  -0.30068  -0.29739  -0.29739
 Alpha virt. eigenvalues --   -0.14534  -0.09108  -0.04057  -0.04057  -0.04008
 Alpha virt. eigenvalues --   -0.04008   0.02205   0.04176   0.04365   0.05468
 Alpha virt. eigenvalues --    0.05468   0.06241   0.06241   0.09448   0.13141
 Alpha virt. eigenvalues --    0.18281   0.18281   0.18840   0.23124   0.26111
 Alpha virt. eigenvalues --    0.26111   0.26718   0.26718   0.27349   0.27612
 Alpha virt. eigenvalues --    0.28878   0.28878   0.30032   0.30032   0.32353
 Alpha virt. eigenvalues --    0.36599   0.42652   0.43435   0.61650   0.61893
 Alpha virt. eigenvalues --    0.90059   1.10357   1.10357   1.20484   1.20484
 Alpha virt. eigenvalues --    1.22636   1.22636   1.28975   1.29255   1.54734
 Alpha virt. eigenvalues --    1.65838   1.94859   2.06784
          Condensed to atoms (all electrons):
               1          2          3          4          5
     1  O    8.733383  -0.275807  -0.275807   0.162386   0.162386
     2  O   -0.275807   8.717135  -0.000801  -0.004526  -0.267287
     3  O   -0.275807  -0.000801   8.717135  -0.267287  -0.004526
     4  Al   0.162386  -0.004526  -0.267287  13.357100  -0.669658
     5  Al   0.162386  -0.267287  -0.004526  -0.669658  13.357100
 Mulliken charges:
               1
     1  O   -0.506540
     2  O   -0.168715
     3  O   -0.168715
     4  Al   0.421985
     5  Al   0.421985
 Sum of Mulliken charges =   0.00000
 Mulliken charges with hydrogens summed into heavy atoms:
               1
     1  O   -0.506540
     2  O   -0.168715
     3  O   -0.168715
     4  Al   0.421985
     5  Al   0.421985
 Electronic spatial extent (au):  <R**2>=           1003.1925
 Charge=              0.0000 electrons
 Dipole moment (field-independent basis, Debye):
    X=              0.0000    Y=              0.0000    Z=              0.0000  Tot=              0.0000
 Quadrupole moment (field-independent basis, Debye-Ang):
   XX=            -34.9050   YY=            -34.9050   ZZ=            -88.2364
   XY=              0.0000   XZ=              0.0000   YZ=              0.0000
 Traceless Quadrupole moment (field-independent basis, Debye-Ang):
   XX=             17.7772   YY=             17.7772   ZZ=            -35.5543
   XY=              0.0000   XZ=              0.0000   YZ=              0.0000
 Octapole moment (field-independent basis, Debye-Ang**2):
  XXX=              0.0000  YYY=              0.0000  ZZZ=              0.0000  XYY=              0.0000
  XXY=              0.0000  XXZ=              0.0000  XZZ=              0.0000  YZZ=              0.0000
  YYZ=              0.0000  XYZ=              0.0000
 Hexadecapole moment (field-independent basis, Debye-Ang**3):
 XXXX=            -43.6756 YYYY=            -43.6756 ZZZZ=          -1995.5283 XXXY=              0.0000
 XXXZ=              0.0000 YYYX=              0.0000 YYYZ=              0.0000 ZZZX=              0.0000
 ZZZY=              0.0000 XXYY=            -14.5585 XXZZ=           -211.9143 YYZZ=           -211.9143
 XXYZ=              0.0000 YYXZ=              0.0000 ZZXY=              0.0000
 N-N= 2.078562170643D+02 E-N=-2.106135556198D+03  KE= 7.078322769567D+02
 Symmetry AG   KE= 3.323071683325D+02
 Symmetry B1G  KE= 0.000000000000D+00
 Symmetry B2G  KE= 2.356374395564D+01
 Symmetry B3G  KE= 2.356374395564D+01
 Symmetry AU   KE= 0.000000000000D+00
 Symmetry B1U  KE= 2.730712330106D+02
 Symmetry B2U  KE= 2.766319385117D+01
 Symmetry B3U  KE= 2.766319385117D+01
 ******************************Gaussian NBO Version 3.1******************************
             N A T U R A L   A T O M I C   O R B I T A L   A N D
          N A T U R A L   B O N D   O R B I T A L   A N A L Y S I S
 ******************************Gaussian NBO Version 3.1******************************
       /RESON  / : Allow strongly delocalized NBO set

 Analyzing the SCF density

 Job title: xGabCom                                                         

 Storage needed:     16399 in NPA ( 536870757 available)


 NATURAL POPULATIONS:  Natural atomic orbital occupancies 
                                                          
   NAO  Atom  No  lang   Type(AO)    Occupancy      Energy
 ----------------------------------------------------------
     1    O    1  S      Cor( 1S)     1.99988     -19.02620
     2    O    1  S      Val( 2S)     1.83369      -1.10785
     3    O    1  S      Ryd( 3S)     0.00865       0.20419
     4    O    1  S      Ryd( 4S)     0.00012       1.45293
     5    O    1  px     Val( 2p)     1.92764      -0.40476
     6    O    1  px     Ryd( 3p)     0.00212       0.27352
     7    O    1  px     Ryd( 4p)     0.00019       1.07923
     8    O    1  py     Val( 2p)     1.92764      -0.40476
     9    O    1  py     Ryd( 3p)     0.00212       0.27352
    10    O    1  py     Ryd( 4p)     0.00019       1.07923
    11    O    1  pz     Val( 2p)     1.82278      -0.52925
    12    O    1  pz     Ryd( 3p)     0.00201       0.33057
    13    O    1  pz     Ryd( 4p)     0.00095       1.38728

    14    O    2  S      Cor( 1S)     1.99996     -18.88733
    15    O    2  S      Val( 2S)     1.91313      -1.05256
    16    O    2  S      Ryd( 3S)     0.00474       0.67620
    17    O    2  S      Ryd( 4S)     0.00006       1.57399
    18    O    2  px     Val( 2p)     1.83715      -0.27475
    19    O    2  px     Ryd( 3p)     0.00008       0.39223
    20    O    2  px     Ryd( 4p)     0.00019       0.99037
    21    O    2  py     Val( 2p)     1.83715      -0.27475
    22    O    2  py     Ryd( 3p)     0.00008       0.39223
    23    O    2  py     Ryd( 4p)     0.00019       0.99037
    24    O    2  pz     Val( 2p)     1.65461      -0.33119
    25    O    2  pz     Ryd( 3p)     0.00208       0.48684
    26    O    2  pz     Ryd( 4p)     0.00037       1.03862

    27    O    3  S      Cor( 1S)     1.99996     -18.88733
    28    O    3  S      Val( 2S)     1.91313      -1.05256
    29    O    3  S      Ryd( 3S)     0.00474       0.67620
    30    O    3  S      Ryd( 4S)     0.00006       1.57399
    31    O    3  px     Val( 2p)     1.83715      -0.27475
    32    O    3  px     Ryd( 3p)     0.00008       0.39223
    33    O    3  px     Ryd( 4p)     0.00019       0.99037
    34    O    3  py     Val( 2p)     1.83715      -0.27475
    35    O    3  py     Ryd( 3p)     0.00008       0.39223
    36    O    3  py     Ryd( 4p)     0.00019       0.99037
    37    O    3  pz     Val( 2p)     1.65461      -0.33119
    38    O    3  pz     Ryd( 3p)     0.00208       0.48684
    39    O    3  pz     Ryd( 4p)     0.00037       1.03862

    40   Al    4  S      Cor( 1S)     2.00000     -55.51060
    41   Al    4  S      Cor( 2S)     1.99941      -4.78092
    42   Al    4  S      Val( 3S)     0.39743      -0.11820
    43   Al    4  S      Ryd( 5S)     0.00050       0.48679
    44   Al    4  S      Ryd( 4S)     0.00008       0.33422
    45   Al    4  px     Cor( 2p)     1.99987      -2.77822
    46   Al    4  px     Val( 3p)     0.19710      -0.01843
    47   Al    4  px     Ryd( 4p)     0.00047       0.15221
    48   Al    4  px     Ryd( 5p)     0.00016       0.20721
    49   Al    4  py     Cor( 2p)     1.99987      -2.77822
    50   Al    4  py     Val( 3p)     0.19710      -0.01843
    51   Al    4  py     Ryd( 4p)     0.00047       0.15221
    52   Al    4  py     Ryd( 5p)     0.00016       0.20721
    53   Al    4  pz     Cor( 2p)     1.99892      -2.76380
    54   Al    4  pz     Val( 3p)     0.19275       0.25297
    55   Al    4  pz     Ryd( 5p)     0.00129       0.30912
    56   Al    4  pz     Ryd( 4p)     0.00060       0.29014

    57   Al    5  S      Cor( 1S)     2.00000     -55.51060
    58   Al    5  S      Cor( 2S)     1.99941      -4.78092
    59   Al    5  S      Val( 3S)     0.39743      -0.11820
    60   Al    5  S      Ryd( 5S)     0.00050       0.48679
    61   Al    5  S      Ryd( 4S)     0.00008       0.33422
    62   Al    5  px     Cor( 2p)     1.99987      -2.77822
    63   Al    5  px     Val( 3p)     0.19710      -0.01843
    64   Al    5  px     Ryd( 4p)     0.00047       0.15221
    65   Al    5  px     Ryd( 5p)     0.00016       0.20721
    66   Al    5  py     Cor( 2p)     1.99987      -2.77822
    67   Al    5  py     Val( 3p)     0.19710      -0.01843
    68   Al    5  py     Ryd( 4p)     0.00047       0.15221
    69   Al    5  py     Ryd( 5p)     0.00016       0.20721
    70   Al    5  pz     Cor( 2p)     1.99892      -2.76380
    71   Al    5  pz     Val( 3p)     0.19275       0.25297
    72   Al    5  pz     Ryd( 5p)     0.00129       0.30912
    73   Al    5  pz     Ryd( 4p)     0.00060       0.29014

 WARNING:  1 low occupancy (<1.9990e) core orbital  found on Al    4
           1 low occupancy (<1.9990e) core orbital  found on Al    5

 WARNING:  Population inversion found on atom  O    2
           Population inversion found on atom  O    3
           Population inversion found on atom Al    4
           Population inversion found on atom Al    5


 Summary of Natural Population Analysis:                  
                                                          
                                       Natural Population 
                Natural  -----------------------------------------------
    Atom  No    Charge         Core      Valence    Rydberg      Total
 -----------------------------------------------------------------------
      O    1   -1.52801      1.99988     7.51175    0.01637     9.52801
      O    2   -1.24980      1.99996     7.24204    0.00780     9.24980
      O    3   -1.24980      1.99996     7.24204    0.00780     9.24980
     Al    4    2.01380      9.99807     0.98439    0.00374    10.98620
     Al    5    2.01380      9.99807     0.98439    0.00374    10.98620
 =======================================================================
   * Total *    0.00000     25.99594    23.96460    0.03946    50.00000

                                 Natural Population      
 --------------------------------------------------------
   Core                      25.99594 ( 99.9844% of  26)
   Valence                   23.96460 ( 99.8525% of  24)
   Natural Minimal Basis     49.96054 ( 99.9211% of  50)
   Natural Rydberg Basis      0.03946 (  0.0789% of  50)
 --------------------------------------------------------

    Atom  No          Natural Electron Configuration
 ----------------------------------------------------------------------------
      O    1      [core]2S( 1.83)2p( 5.68)3S( 0.01)3p( 0.01)
      O    2      [core]2S( 1.91)2p( 5.33)
      O    3      [core]2S( 1.91)2p( 5.33)
     Al    4      [core]3S( 0.40)3p( 0.59)
     Al    5      [core]3S( 0.40)3p( 0.59)


 NBO analysis skipped by request.
 Calling FoFJK, ICntrl=      2127 FMM=F ISym2X=1 I1Cent= 0 IOpClX= 0 NMat=1 NMatS=1 NMatT=0.
 ***** Axes restored to original set *****
 -------------------------------------------------------------------
 Center     Atomic                   Forces (Hartrees/Bohr)
 Number     Number              X              Y              Z
 -------------------------------------------------------------------
      1        8           0.000000000    0.000000000    0.000000000
      2        8           0.000000000    0.000000000    0.041618232
      3        8           0.000000000    0.000000000   -0.041618232
      4       13           0.000000000    0.000000000    0.032217351
      5       13           0.000000000    0.000000000   -0.032217351
 -------------------------------------------------------------------
 Cartesian Forces:  Max     0.041618232 RMS     0.019218168

 GradGradGradGradGradGradGradGradGradGradGradGradGradGradGradGradGradGrad
 Berny optimization.
 Search for a local minimum.
 Step number   1 out of a maximum of    2
 All quantities printed in internal units (Hartrees-Bohrs-Radians)
 Second derivative matrix not updated -- first step.
 The second derivative matrix:
                          X1        Y1        Z1        X2        Y2
           X1           0.19658
           Y1           0.00000   0.19658
           Z1           0.00000   0.00000   0.74776
           X2           0.02577   0.00000   0.00000   0.05406
           Y2           0.00000   0.02577   0.00000   0.00000   0.05406
           Z2           0.00000   0.00000   0.00000   0.00000   0.00000
           X3           0.02577   0.00000   0.00000   0.00000   0.00000
           Y3           0.00000   0.02577   0.00000   0.00000   0.00000
           Z3           0.00000   0.00000   0.00000   0.00000   0.00000
           X4          -0.12406   0.00000   0.00000   0.01289   0.00000
           Y4           0.00000  -0.12406   0.00000   0.00000   0.01289
           Z4           0.00000   0.00000  -0.37388   0.00000   0.00000
           X5          -0.12406   0.00000   0.00000  -0.09272   0.00000
           Y5           0.00000  -0.12406   0.00000   0.00000  -0.09272
           Z5           0.00000   0.00000  -0.37388   0.00000   0.00000
                          Z2        X3        Y3        Z3        X4
           Z2           0.49458
           X3           0.00000   0.05406
           Y3           0.00000   0.00000   0.05406
           Z3           0.00000   0.00000   0.00000   0.49458
           X4           0.00000  -0.09272   0.00000   0.00000   0.20510
           Y4           0.00000   0.00000  -0.09272   0.00000   0.00000
           Z4           0.00000   0.00000   0.00000  -0.49458   0.00000
           X5           0.00000   0.01289   0.00000   0.00000  -0.00120
           Y5           0.00000   0.00000   0.01289   0.00000   0.00000
           Z5          -0.49458   0.00000   0.00000   0.00000   0.00000
                          Y4        Z4        X5        Y5        Z5
           Y4           0.20510
           Z4           0.00000   0.89010
           X5           0.00000   0.00000   0.20510
           Y5          -0.00120   0.00000   0.00000   0.20510
           Z5           0.00000  -0.02164   0.00000   0.00000   0.89010
 ITU=  0
     Eigenvalues ---    0.05859   0.05859   0.16640   0.25750   0.25750
     Eigenvalues ---    0.39102   0.39102   0.61986   1.23993   1.46997
 Angle between quadratic step and forces=  49.67 degrees.
 ClnCor:  largest displacement from symmetrization is 1.05D-13 for atom     3.
 Linear search not attempted -- first point.
 ClnCor:  largest displacement from symmetrization is 8.82D-31 for atom     1.
 TrRot=  0.000000  0.000000  0.000000  0.000000  0.000000  0.000000
 Variable       Old X    -DE/DX   Delta X   Delta X   Delta X     New X
                                 (Linear)    (Quad)   (Total)
    X1        0.00000   0.00000   0.00000   0.00000   0.00000   0.00000
    Y1        0.00000   0.00000   0.00000   0.00000   0.00000   0.00000
    Z1        0.00000   0.00000   0.00000   0.00000   0.00000   0.00000
    X2        0.00000   0.00000   0.00000   0.00000   0.00000   0.00000
    Y2        0.00000   0.00000   0.00000   0.00000   0.00000   0.00000
    Z2        6.23081   0.04162   0.00000   0.10668   0.10668   6.33749
    X3        0.00000   0.00000   0.00000   0.00000   0.00000   0.00000
    Y3        0.00000   0.00000   0.00000   0.00000   0.00000   0.00000
    Z3       -6.23081  -0.04162   0.00000  -0.10668  -0.10668  -6.33749
    X4        0.00000   0.00000   0.00000   0.00000   0.00000   0.00000
    Y4        0.00000   0.00000   0.00000   0.00000   0.00000   0.00000
    Z4       -3.18965   0.03222   0.00000  -0.02254  -0.02254  -3.21219
    X5        0.00000   0.00000   0.00000   0.00000   0.00000   0.00000
    Y5        0.00000   0.00000   0.00000   0.00000   0.00000   0.00000
    Z5        3.18965  -0.03222   0.00000   0.02254   0.02254   3.21219
         Item               Value     Threshold  Converged?
 Maximum Force            0.041618     0.000450     NO 
 RMS     Force            0.019218     0.000300     NO 
 Maximum Displacement     0.106684     0.001800     NO 
 RMS     Displacement     0.039815     0.001200     NO 
 Predicted change in Energy=-3.713948D-03
 GradGradGradGradGradGradGradGradGradGradGradGradGradGradGradGradGradGrad

 1\1\GINC-CCWSGE0519\Force\RB3LYP\6-31+G\Al2O3\ALLOUCHE\10-Apr-2019\0\\
 #B3LYP/6-31+G force Pop=NPA\\xGabCom\\0,1\O,0.,0.,0.\O,0.,0.,3.297203\
 O,0.,0.,-3.297203\Al,0.,0.,-1.687891\Al,0.,0.,1.687891\\Version=EM64L-
 G09RevD.01\State=1-SGG\HF=-710.5326945\RMSD=6.391e-09\RMSF=1.922e-02\D
 ipole=0.,0.,0.\Quadrupole=13.216879,13.216879,-26.433758,0.,0.,0.\PG=D
 *H [O(O1),C*(O1Al1.Al1O1)]\\@


 Money is a good servant but a bad master.
                        -- French Proverb
 Job cpu time:       0 days  0 hours  0 minutes 38.9 seconds.
 File lengths (MBytes):  RWF=      5 Int=      0 D2E=      0 Chk=      1 Scr=      1
 Normal termination of Gaussian 09 at Wed Apr 10 19:50:15 2019.
