begin
comment by xLogML
atom 0.100633625422 0.121176846310 0.083336955310 O 0.000000000000 0.000000000000 -0.005326681000 -0.007776587000 -0.051174459000
atom -0.020106693980 0.051239944291 6.155269408912 O 0.000000000000 0.000000000000 -0.001311356000 0.001520023000 0.094018656000
atom 0.033289428679 0.051920245967 -6.232421288151 O 0.000000000000 0.000000000000 0.000037453000 0.000029386000 -0.052094378000
atom -0.064602203044 -0.066873654751 -3.216037356121 Al 0.000000000000 0.000000000000 0.004020283000 0.005172237000 0.074779238000
atom -0.002870495127 -0.066113984546 3.212369396251 Al 0.000000000000 0.000000000000 0.002580300000 0.001054941000 -0.065529058000
energy  -710.521929677
charge  0
end
begin
comment by xLogML
atom 0.101644629302 0.122390050966 0.084113633057 O 0.000000000000 0.000000000000 -0.005380840000 -0.007850653000 -0.051611640000
atom -0.020310784482 0.051759619182 6.154649578496 O 0.000000000000 0.000000000000 -0.001327427000 0.001554352000 0.094479072000
atom 0.033625800063 0.052443700312 -6.232529002583 O 0.000000000000 0.000000000000 0.000039397000 0.000031681000 -0.052104560000
atom -0.065252269090 -0.067546397519 -3.216235777443 Al 0.000000000000 0.000000000000 0.004067784000 0.005231386000 0.075038890000
atom -0.002896951304 -0.066781058134 3.212539471670 Al 0.000000000000 0.000000000000 0.002601085000 0.001033234000 -0.065801762000
energy  -710.521790222
charge  0
end
begin
comment by xLogML
atom 0.102653743454 0.123605145348 0.084888421077 O 0.000000000000 0.000000000000 -0.005434919000 -0.007924533000 -0.052046948000
atom -0.020514874985 0.052277404347 6.154031637807 O 0.000000000000 0.000000000000 -0.001343537000 0.001588980000 0.094937042000
atom 0.033962171447 0.052969044384 -6.232638606742 O 0.000000000000 0.000000000000 0.000041306000 0.000033935000 -0.052112612000
atom -0.065902335136 -0.068217250561 -3.216430419311 Al 0.000000000000 0.000000000000 0.004115403000 0.005290655000 0.075294859000
atom -0.002923407480 -0.067448131722 3.212707657362 Al 0.000000000000 0.000000000000 0.002621747000 0.001010964000 -0.066072342000
energy  -710.521650615
charge  0
end
begin
comment by xLogML
atom 0.103662857607 0.124818350004 0.085661319370 O 0.000000000000 0.000000000000 -0.005488926000 -0.007998229000 -0.052480402000
atom -0.020718965488 0.052797079238 6.153417476572 O 0.000000000000 0.000000000000 -0.001359687000 0.001623903000 0.095392534000
atom 0.034298542832 0.053492498729 -6.232750100628 O 0.000000000000 0.000000000000 0.000043175000 0.000036145000 -0.052118532000
atom -0.066552401181 -0.068889993329 -3.216625061180 Al 0.000000000000 0.000000000000 0.004163142000 0.005350043000 0.075547143000
atom -0.002949863656 -0.068113315582 3.212873953328 Al 0.000000000000 0.000000000000 0.002642294000 0.000988138000 -0.066340743000
energy  -710.521510871
charge  0
end
begin
comment by xLogML
atom 0.104673861487 0.126031554659 0.086432327936 O 0.000000000000 0.000000000000 -0.005542853000 -0.008071737000 -0.052911983000
atom -0.020924945718 0.053316754130 6.152807094791 O 0.000000000000 0.000000000000 -0.001375874000 0.001659116000 0.095845514000
atom 0.034634914216 0.054017842801 -6.232863484241 O 0.000000000000 0.000000000000 0.000045005000 0.000038309000 -0.052122318000
atom -0.067200577501 -0.069560846371 -3.216817813321 Al 0.000000000000 0.000000000000 0.004211001000 0.005409551000 0.075795742000
atom -0.002978209559 -0.068780389170 3.213040249293 Al 0.000000000000 0.000000000000 0.002662722000 0.000964760000 -0.066606955000
energy  -710.521371005
charge  0
end
begin
comment by xLogML
atom 0.105682975640 0.127244759315 0.087201446775 O 0.000000000000 0.000000000000 -0.005596699000 -0.008145055000 -0.053341687000
atom -0.021129036220 0.053834539294 6.152198602736 O 0.000000000000 0.000000000000 -0.001392099000 0.001694617000 0.096295952000
atom 0.034971285600 0.054541297146 -6.232980647307 O 0.000000000000 0.000000000000 0.000046792000 0.000040424000 -0.052123967000
atom -0.067850643546 -0.070233589139 -3.217008675736 Al 0.000000000000 0.000000000000 0.004258978000 0.005469180000 0.076040652000
atom -0.003004665736 -0.069445573031 3.213202765804 Al 0.000000000000 0.000000000000 0.002683029000 0.000940834000 -0.066870951000
energy  -710.521231029
charge  0
end
begin
comment by xLogML
atom 0.106692089792 0.128457963970 0.087968675887 O 0.000000000000 0.000000000000 -0.005650464000 -0.008218183000 -0.053769508000
atom -0.021335016450 0.054354214185 6.151595779862 O 0.000000000000 0.000000000000 -0.001408361000 0.001730400000 0.096743815000
atom 0.035307656984 0.055066641218 -6.233097810373 O 0.000000000000 0.000000000000 0.000048535000 0.000042488000 -0.052123476000
atom -0.068500709592 -0.070904442181 -3.217199538151 Al 0.000000000000 0.000000000000 0.004307074000 0.005528929000 0.076281875000
atom -0.003031121912 -0.070112646619 3.213365282316 Al 0.000000000000 0.000000000000 0.002703216000 0.000916366000 -0.067132705000
energy  -710.521090960
charge  0
end
begin
comment by xLogML
atom 0.107699314218 0.129671168626 0.088734015273 O 0.000000000000 0.000000000000 -0.005704144000 -0.008291118000 -0.054195441000
atom -0.021539106953 0.054873889077 6.150994846715 O 0.000000000000 0.000000000000 -0.001424659000 0.001766463000 0.097189070000
atom 0.035644028369 0.055590095563 -6.233216863167 O 0.000000000000 0.000000000000 0.000050231000 0.000044497000 -0.052120845000
atom -0.069148885912 -0.071575295223 -3.217386621112 Al 0.000000000000 0.000000000000 0.004355289000 0.005588798000 0.076519408000
atom -0.003057578088 -0.070779720207 3.213525909100 Al 0.000000000000 0.000000000000 0.002723283000 0.000891360000 -0.067392192000
energy  -710.520950810
charge  0
end
begin
comment by xLogML
atom 0.108708428371 0.130882483555 0.089497464931 O 0.000000000000 0.000000000000 -0.005757738000 -0.008363858000 -0.054619482000
atom -0.021745087183 0.055393563968 6.150399582748 O 0.000000000000 0.000000000000 -0.001440993000 0.001802799000 0.097631687000
atom 0.035980399753 0.056115439636 -6.233337805687 O 0.000000000000 0.000000000000 0.000051878000 0.000046449000 -0.052116072000
atom -0.069798951957 -0.072246148264 -3.217573704073 Al 0.000000000000 0.000000000000 0.004403623000 0.005648788000 0.076753252000
atom -0.003084034265 -0.071444904068 3.213684646158 Al 0.000000000000 0.000000000000 0.002743229000 0.000865821000 -0.067649385000
energy  -710.520810594
charge  0
end
begin
comment by xLogML
atom 0.109717542524 0.132095688210 0.090259024863 O 0.000000000000 0.000000000000 -0.005811246000 -0.008436402000 -0.055041626000
atom -0.021949177685 0.055913238860 6.149806208509 O 0.000000000000 0.000000000000 -0.001457361000 0.001839407000 0.098071633000
atom 0.036316771137 0.056638893981 -6.233462527661 O 0.000000000000 0.000000000000 0.000053474000 0.000048342000 -0.052109154000
atom -0.070447128277 -0.072917001306 -3.217757007580 Al 0.000000000000 0.000000000000 0.004452077000 0.005708898000 0.076983406000
atom -0.003110490441 -0.072111977656 3.213843383216 Al 0.000000000000 0.000000000000 0.002763055000 0.000839755000 -0.067904259000
energy  -710.520670326
charge  0
end
begin
comment by xLogML
atom 0.009176513718 0.011058681689 0.007870712446 O 0.000000000000 0.000000000000 -0.000444543000 -0.000697733000 -0.005165924000
atom -0.001821696710 0.004656287027 6.223035014749 O 0.000000000000 0.000000000000 -0.000091843000 -0.000029395000 0.046574762000
atom 0.003027342458 0.004720537741 -6.230263220057 O 0.000000000000 0.000000000000 -0.000030585000 -0.000039009000 -0.043229089000
atom -0.005884609497 -0.006094369181 -3.192495138678 Al 0.000000000000 0.000000000000 0.000297490000 0.000400513000 0.037292936000
atom -0.000270230944 -0.006018780106 3.192113413848 Al 0.000000000000 0.000000000000 0.000269482000 0.000365625000 -0.035472685000
energy  -710.532116553
charge  0
end
begin
comment by xLogML
atom 0.110724766949 0.133307003139 0.091016805341 O 0.000000000000 0.000000000000 -0.005864664000 -0.008508749000 -0.055461868000
atom -0.022155157915 0.056431024024 6.149216613723 O 0.000000000000 0.000000000000 -0.001473763000 0.001876280000 0.098508877000
atom 0.036653142521 0.057164238053 -6.233587249635 O 0.000000000000 0.000000000000 0.000055017000 0.000050173000 -0.052100090000
atom -0.071097194323 -0.073587854347 -3.217940311087 Al 0.000000000000 0.000000000000 0.004500649000 0.005769128000 0.077209870000
atom -0.003136946617 -0.072777161517 3.214000230547 Al 0.000000000000 0.000000000000 0.002782760000 0.000813167000 -0.068156789000
energy  -710.520530020
charge  0
end
begin
comment by xLogML
atom 0.111733881102 0.134518318067 0.091774585819 O 0.000000000000 0.000000000000 -0.005917991000 -0.008580895000 -0.055880209000
atom -0.022359248418 0.056950698915 6.148630798391 O 0.000000000000 0.000000000000 -0.001490199000 0.001913415000 0.098943386000
atom 0.036989513906 0.057687692398 -6.233713861336 O 0.000000000000 0.000000000000 0.000056505000 0.000051940000 -0.052088879000
atom -0.071745370642 -0.074258707389 -3.218121724867 Al 0.000000000000 0.000000000000 0.004549340000 0.005829480000 0.077432645000
atom -0.003163402793 -0.073444235105 3.214155188151 Al 0.000000000000 0.000000000000 0.002802344000 0.000786061000 -0.068406943000
energy  -710.520389691
charge  0
end
begin
comment by xLogML
atom 0.112741105528 0.135729632996 0.092530476570 O 0.000000000000 0.000000000000 -0.005971227000 -0.008652844000 -0.056296635000
atom -0.022565228648 0.057470373807 6.148048762512 O 0.000000000000 0.000000000000 -0.001506666000 0.001950807000 0.099375131000
atom 0.037323995563 0.058213036470 -6.233842362763 O 0.000000000000 0.000000000000 0.000057935000 0.000053639000 -0.052075521000
atom -0.072393546961 -0.074929560431 -3.218301248920 Al 0.000000000000 0.000000000000 0.004598151000 0.005889953000 0.077651731000
atom -0.003189858970 -0.074111308693 3.214308256028 Al 0.000000000000 0.000000000000 0.002821807000 0.000758445000 -0.068654705000
energy  -710.520249352
charge  0
end
begin
comment by xLogML
atom 0.113748329954 0.136939058198 0.093282587868 O 0.000000000000 0.000000000000 -0.006024370000 -0.008724590000 -0.056711146000
atom -0.022769319150 0.057990048698 6.147470506088 O 0.000000000000 0.000000000000 -0.001523166000 0.001988452000 0.099804078000
atom 0.037660366947 0.058736490815 -6.233974643645 O 0.000000000000 0.000000000000 0.000059305000 0.000055268000 -0.052060013000
atom -0.073041723280 -0.075600413472 -3.218478883247 Al 0.000000000000 0.000000000000 0.004647080000 0.005950547000 0.077867129000
atom -0.003216315146 -0.074776492554 3.214459434178 Al 0.000000000000 0.000000000000 0.002841150000 0.000730323000 -0.068900047000
energy  -710.520109017
charge  0
end
begin
comment by xLogML
atom 0.114755554380 0.138150373127 0.094034699165 O 0.000000000000 0.000000000000 -0.006077418000 -0.008796134000 -0.057123738000
atom -0.022975299380 0.058509723590 6.146896029117 O 0.000000000000 0.000000000000 -0.001539697000 0.002026345000 0.100230197000
atom 0.037996738331 0.059261834887 -6.234106924526 O 0.000000000000 0.000000000000 0.000060614000 0.000056825000 -0.052042356000
atom -0.073691789326 -0.076269376787 -3.218654627847 Al 0.000000000000 0.000000000000 0.004696129000 0.006011263000 0.078078839000
atom -0.003242771322 -0.075443566141 3.214610612328 Al 0.000000000000 0.000000000000 0.002860372000 0.000701702000 -0.069142942000
energy  -710.519968701
charge  0
end
begin
comment by xLogML
atom 0.115762778806 0.139359798328 0.094783031009 O 0.000000000000 0.000000000000 -0.006130370000 -0.008867474000 -0.057534407000
atom -0.023181279610 0.059029398481 6.146325331600 O 0.000000000000 0.000000000000 -0.001556258000 0.002064482000 0.100653457000
atom 0.038333109716 0.059785289232 -6.234241095135 O 0.000000000000 0.000000000000 0.000061859000 0.000058307000 -0.052022548000
atom -0.074339965645 -0.076940229829 -3.218828482719 Al 0.000000000000 0.000000000000 0.004745296000 0.006072100000 0.078286864000
atom -0.003269227499 -0.076108750002 3.214758011025 Al 0.000000000000 0.000000000000 0.002879472000 0.000672585000 -0.069383366000
energy  -710.519828416
charge  0
end
begin
comment by xLogML
atom 0.116770003231 0.140571113257 0.095529473125 O 0.000000000000 0.000000000000 -0.006183225000 -0.008938609000 -0.057943147000
atom -0.023385370112 0.059549073372 6.145756523810 O 0.000000000000 0.000000000000 -0.001572848000 0.002102859000 0.101073826000
atom 0.038669481100 0.060310633304 -6.234377155470 O 0.000000000000 0.000000000000 0.000063038000 0.000059711000 -0.052000590000
atom -0.074988141964 -0.077609193143 -3.219002337592 Al 0.000000000000 0.000000000000 0.004794583000 0.006133059000 0.078491205000
atom -0.003295683675 -0.076775823590 3.214905409721 Al 0.000000000000 0.000000000000 0.002898452000 0.000642980000 -0.069621293000
energy  -710.519688178
charge  0
end
begin
comment by xLogML
atom 0.117777227657 0.141780538459 0.096274025515 O 0.000000000000 0.000000000000 -0.006235981000 -0.009009537000 -0.058349956000
atom -0.023591350342 0.060068748264 6.145193385200 O 0.000000000000 0.000000000000 -0.001589468000 0.002141469000 0.101491274000
atom 0.039005852484 0.060834087649 -6.234516995259 O 0.000000000000 0.000000000000 0.000064149000 0.000061036000 -0.051976481000
atom -0.075636318283 -0.078280046185 -3.219172413011 Al 0.000000000000 0.000000000000 0.004843989000 0.006194141000 0.078691862000
atom -0.003320250124 -0.077441007451 3.215052808418 Al 0.000000000000 0.000000000000 0.002917310000 0.000612892000 -0.069856699000
energy  -710.519547999
charge  0
end
begin
comment by xLogML
atom 0.118782562356 0.142988073934 0.097016688178 O 0.000000000000 0.000000000000 -0.006288637000 -0.009080257000 -0.058754829000
atom -0.023797330572 0.060590312882 6.144634026044 O 0.000000000000 0.000000000000 -0.001606115000 0.002180309000 0.101905771000
atom 0.039342223868 0.061359431721 -6.234656835048 O 0.000000000000 0.000000000000 0.000065190000 0.000062277000 -0.051950221000
atom -0.076284494602 -0.078949009500 -3.219342488430 Al 0.000000000000 0.000000000000 0.004893515000 0.006255344000 0.078888839000
atom -0.003346706301 -0.078108081039 3.215196427660 Al 0.000000000000 0.000000000000 0.002936047000 0.000582327000 -0.070089560000
energy  -710.519407894
charge  0
end
begin
comment by xLogML
atom 0.119789786782 0.144197499135 0.097757461114 O 0.000000000000 0.000000000000 -0.006341191000 -0.009150768000 -0.059157763000
atom -0.024001421075 0.061109987773 6.144076556615 O 0.000000000000 0.000000000000 -0.001622789000 0.002219374000 0.102317285000
atom 0.039678595253 0.061882886066 -6.234798564563 O 0.000000000000 0.000000000000 0.000066159000 0.000063434000 -0.051921809000
atom -0.076932670921 -0.079619862541 -3.219508784395 Al 0.000000000000 0.000000000000 0.004943160000 0.006316671000 0.079082138000
atom -0.003373162477 -0.078773264900 3.215340046903 Al 0.000000000000 0.000000000000 0.002954662000 0.000551291000 -0.070319851000
energy  -710.519267876
charge  0
end
begin
comment by xLogML
atom 0.010195076506 0.012287004159 0.008743766263 O 0.000000000000 0.000000000000 -0.000494932000 -0.000776034000 -0.005735633000
atom -0.002023897486 0.005172182464 6.222178968474 O 0.000000000000 0.000000000000 -0.000102421000 -0.000030594000 0.047127046000
atom 0.003363713842 0.005245881813 -6.230208417977 O 0.000000000000 0.000000000000 -0.000033360000 -0.000042588000 -0.043401705000
atom -0.006538454997 -0.006772781130 -3.192806943612 Al 0.000000000000 0.000000000000 0.000331597000 0.000446132000 0.037844926000
atom -0.000300466574 -0.006687743420 3.192383644792 Al 0.000000000000 0.000000000000 0.000299115000 0.000403084000 -0.035834634000
energy  -710.532045871
charge  0
end
begin
comment by xLogML
atom 0.120795121481 0.145406924337 0.098494454596 O 0.000000000000 0.000000000000 -0.006393643000 -0.009221069000 -0.059558753000
atom -0.024207401304 0.061629662665 6.143524756367 O 0.000000000000 0.000000000000 -0.001639490000 0.002258658000 0.102725786000
atom 0.040014966637 0.062408230138 -6.234944073533 O 0.000000000000 0.000000000000 0.000067053000 0.000064502000 -0.051891247000
atom -0.077580847240 -0.080288825856 -3.219675080361 Al 0.000000000000 0.000000000000 0.004992924000 0.006378120000 0.079271760000
atom -0.003399618653 -0.079440338488 3.215479886692 Al 0.000000000000 0.000000000000 0.002973156000 0.000519789000 -0.070547546000
energy  -710.519127959
charge  0
end
begin
comment by xLogML
atom 0.121800456180 0.146614459812 0.099231448079 O 0.000000000000 0.000000000000 -0.006445990000 -0.009291159000 -0.059957795000
atom -0.024413381534 0.062149337556 6.142976735572 O 0.000000000000 0.000000000000 -0.001656217000 0.002298158000 0.103131243000
atom 0.040351338021 0.062931684484 -6.235089582503 O 0.000000000000 0.000000000000 0.000067871000 0.000065480000 -0.051858535000
atom -0.078227133832 -0.080957789171 -3.219839486599 Al 0.000000000000 0.000000000000 0.005042808000 0.006439692000 0.079457709000
atom -0.003424185103 -0.080105522349 3.215619726481 Al 0.000000000000 0.000000000000 0.002991528000 0.000487829000 -0.070772623000
energy  -710.518988156
charge  0
end
begin
comment by xLogML
atom 0.122805790879 0.147821995287 0.099964662107 O 0.000000000000 0.000000000000 -0.006498233000 -0.009361037000 -0.060354886000
atom -0.024619361764 0.062670902175 6.142430604505 O 0.000000000000 0.000000000000 -0.001672968000 0.002337868000 0.103533628000
atom 0.040687709405 0.063457028556 -6.235236981199 O 0.000000000000 0.000000000000 0.000068610000 0.000066366000 -0.051823673000
atom -0.078875310151 -0.081626752485 -3.220002003110 Al 0.000000000000 0.000000000000 0.005092812000 0.006501388000 0.079639988000
atom -0.003450641279 -0.080772595937 3.215759566270 Al 0.000000000000 0.000000000000 0.003009779000 0.000455415000 -0.070995057000
energy  -710.518848481
charge  0
end
begin
comment by xLogML
atom 0.123811125578 0.149029530762 0.100695986409 O 0.000000000000 0.000000000000 -0.006550368000 -0.009430702000 -0.060750022000
atom -0.024825341993 0.063190577066 6.141890142618 O 0.000000000000 0.000000000000 -0.001689743000 0.002377783000 0.103932908000
atom 0.041024080790 0.063980482901 -6.235388159349 O 0.000000000000 0.000000000000 0.000069268000 0.000067156000 -0.051786661000
atom -0.079523486471 -0.082295715800 -3.220162629895 Al 0.000000000000 0.000000000000 0.005142936000 0.006563207000 0.079818599000
atom -0.003477097455 -0.081437779798 3.215895626605 Al 0.000000000000 0.000000000000 0.003027908000 0.000422556000 -0.071214824000
energy  -710.518708947
charge  0
end
begin
comment by xLogML
atom 0.124816460277 0.150237066237 0.101425420984 O 0.000000000000 0.000000000000 -0.006602397000 -0.009500153000 -0.061143199000
atom -0.025031322223 0.063712141684 6.141351570458 O 0.000000000000 0.000000000000 -0.001706542000 0.002417898000 0.104329056000
atom 0.041360452174 0.064505826973 -6.235539337500 O 0.000000000000 0.000000000000 0.000069844000 0.000067848000 -0.051747502000
atom -0.080169773063 -0.082964679115 -3.220321366953 Al 0.000000000000 0.000000000000 0.005193179000 0.006625151000 0.079993547000
atom -0.003501663905 -0.082104853386 3.216029797213 Al 0.000000000000 0.000000000000 0.003045915000 0.000389256000 -0.071431901000
energy  -710.518569568
charge  0
end
begin
comment by xLogML
atom 0.125821794976 0.151442711985 0.102152965832 O 0.000000000000 0.000000000000 -0.006654316000 -0.009569389000 -0.061534415000
atom -0.025237302453 0.064231816576 6.140818667478 O 0.000000000000 0.000000000000 -0.001723363000 0.002458208000 0.104722041000
atom 0.041696823558 0.065029281318 -6.235692405377 O 0.000000000000 0.000000000000 0.000070335000 0.000068440000 -0.051706196000
atom -0.080817949382 -0.083633642430 -3.220478214284 Al 0.000000000000 0.000000000000 0.005243543000 0.006687219000 0.080164834000
atom -0.003528120081 -0.082770037247 3.216163967822 Al 0.000000000000 0.000000000000 0.003063801000 0.000355522000 -0.071646264000
energy  -710.518430357
charge  0
end
begin
comment by xLogML
atom 0.126825239948 0.152650247460 0.102878620953 O 0.000000000000 0.000000000000 -0.006706126000 -0.009638408000 -0.061923664000
atom -0.025443282682 0.064753381194 6.140289543952 O 0.000000000000 0.000000000000 -0.001740205000 0.002498708000 0.105111833000
atom 0.042033194942 0.065554625390 -6.235849252708 O 0.000000000000 0.000000000000 0.000070739000 0.000068929000 -0.051662744000
atom -0.081464235974 -0.084302605744 -3.220635061615 Al 0.000000000000 0.000000000000 0.005294027000 0.006749411000 0.080332464000
atom -0.003552686530 -0.083437110834 3.216296248703 Al 0.000000000000 0.000000000000 0.003081565000 0.000321360000 -0.071857890000
energy  -710.518291327
charge  0
end
begin
comment by xLogML
atom 0.127830574647 0.153855893208 0.103600496620 O 0.000000000000 0.000000000000 -0.006757825000 -0.009707211000 -0.062310944000
atom -0.025649262912 0.065273056085 6.139762310153 O 0.000000000000 0.000000000000 -0.001757068000 0.002539392000 0.105498404000
atom 0.042369566327 0.066078079735 -6.236006100038 O 0.000000000000 0.000000000000 0.000071054000 0.000069312000 -0.051617148000
atom -0.082112412293 -0.084971569059 -3.220788129492 Al 0.000000000000 0.000000000000 0.005344632000 0.006811729000 0.080496443000
atom -0.003579142707 -0.084102294695 3.216426639858 Al 0.000000000000 0.000000000000 0.003099207000 0.000286778000 -0.072066755000
energy  -710.518152492
charge  0
end
begin
comment by xLogML
atom 0.128834019619 0.155061538956 0.104320482561 O 0.000000000000 0.000000000000 -0.006809411000 -0.009775797000 -0.062696252000
atom -0.025855243142 0.065794620703 6.139240745535 O 0.000000000000 0.000000000000 -0.001773951000 0.002580256000 0.105881724000
atom 0.042705937711 0.066603423807 -6.236166726823 O 0.000000000000 0.000000000000 0.000071281000 0.000069586000 -0.051569410000
atom -0.082758698885 -0.085640532374 -3.220939307642 Al 0.000000000000 0.000000000000 0.005395354000 0.006874173000 0.080656775000
atom -0.003603709156 -0.084769368283 3.216555141285 Al 0.000000000000 0.000000000000 0.003116727000 0.000251781000 -0.072272836000
energy  -710.518013864
charge  0
end
begin
comment by xLogML
atom 0.129837464591 0.156267184704 0.105038578774 O 0.000000000000 0.000000000000 -0.006860885000 -0.009844163000 -0.063079584000
atom -0.026061223371 0.066314295595 6.138722960371 O 0.000000000000 0.000000000000 -0.001790853000 0.002621293000 0.106261764000
atom 0.043042309095 0.067126878152 -6.236327353608 O 0.000000000000 0.000000000000 0.000071412000 0.000069752000 -0.051519531000
atom -0.083406875204 -0.086307605962 -3.221090485792 Al 0.000000000000 0.000000000000 0.005446200000 0.006936741000 0.080813462000
atom -0.003628275605 -0.085434552144 3.216683642713 Al 0.000000000000 0.000000000000 0.003134126000 0.000216377000 -0.072476112000
energy  -710.517875456
charge  0
end
begin
comment by xLogML
atom 0.011215529020 0.013515326630 0.009618709808 O 0.000000000000 0.000000000000 -0.000545507000 -0.000854473000 -0.006304421000
atom -0.002226098262 0.005689967629 6.221324811925 O 0.000000000000 0.000000000000 -0.000113073000 -0.000031375000 0.047679559000
atom 0.003700085227 0.005769336158 -6.230157395352 O 0.000000000000 0.000000000000 -0.000036013000 -0.000046019000 -0.043572997000
atom -0.007192300497 -0.007449303352 -3.193118748547 Al 0.000000000000 0.000000000000 0.000365908000 0.000491966000 0.038394431000
atom -0.000330702204 -0.007356706735 3.192653875735 Al 0.000000000000 0.000000000000 0.000328684000 0.000439901000 -0.036196571000
energy  -710.531973922
charge  0
end
begin
comment by xLogML
atom 0.130840909563 0.157470940725 0.105754785261 O 0.000000000000 0.000000000000 -0.006912244000 -0.009912311000 -0.063460937000
atom -0.026267203601 0.066835860213 6.138208954660 O 0.000000000000 0.000000000000 -0.001807774000 0.002662500000 0.106638496000
atom 0.043378680479 0.067652222224 -6.236489870119 O 0.000000000000 0.000000000000 0.000071449000 0.000069804000 -0.051467512000
atom -0.084053161797 -0.086976569276 -3.221239774215 Al 0.000000000000 0.000000000000 0.005497166000 0.006999436000 0.080966511000
atom -0.003654731782 -0.086101625732 3.216808364687 Al 0.000000000000 0.000000000000 0.003151403000 0.000180571000 -0.072676558000
energy  -710.517737282
charge  0
end
begin
comment by xLogML
atom 0.131844354535 0.158676586473 0.106469102021 O 0.000000000000 0.000000000000 -0.006963488000 -0.009980238000 -0.063840307000
atom -0.026473183831 0.067357424831 6.137698728403 O 0.000000000000 0.000000000000 -0.001824711000 0.002703869000 0.107011891000
atom 0.043715051864 0.068175676569 -6.236656166084 O 0.000000000000 0.000000000000 0.000071388000 0.000069742000 -0.051413356000
atom -0.084699448389 -0.087643642864 -3.221385283185 Al 0.000000000000 0.000000000000 0.005548253000 0.007062256000 0.081115925000
atom -0.003679298231 -0.086766809593 3.216933086661 Al 0.000000000000 0.000000000000 0.003168558000 0.000144372000 -0.072874153000
energy  -710.517599354
charge  0
end
begin
comment by xLogML
atom 0.132847799508 0.159880342494 0.107179639327 O 0.000000000000 0.000000000000 -0.007014615000 -0.010047946000 -0.064217691000
atom -0.026681053787 0.067878989450 6.137192281600 O 0.000000000000 0.000000000000 -0.001841665000 0.002745396000 0.107381921000
atom 0.044049533521 0.068701020641 -6.236822462050 O 0.000000000000 0.000000000000 0.000071229000 0.000069561000 -0.051357066000
atom -0.085345734981 -0.088310716452 -3.221530792155 Al 0.000000000000 0.000000000000 0.005599460000 0.007125204000 0.081261711000
atom -0.003703864680 -0.087433883181 3.217055918908 Al 0.000000000000 0.000000000000 0.003185591000 0.000107784000 -0.073068874000
energy  -710.517461686
charge  0
end
begin
comment by xLogML
atom 0.133851244480 0.161084098515 0.107888286906 O 0.000000000000 0.000000000000 -0.007065626000 -0.010115431000 -0.064593088000
atom -0.026887034017 0.068400554068 6.136689614250 O 0.000000000000 0.000000000000 -0.001858634000 0.002787075000 0.107748557000
atom 0.044385904905 0.069226364714 -6.236990647742 O 0.000000000000 0.000000000000 0.000070968000 0.000069260000 -0.051298643000
atom -0.085992021573 -0.088979679767 -3.221674411397 Al 0.000000000000 0.000000000000 0.005650790000 0.007188279000 0.081403874000
atom -0.003730320857 -0.088099067042 3.217176861428 Al 0.000000000000 0.000000000000 0.003202502000 0.000070816000 -0.073260701000
energy  -710.517324289
charge  0
end
begin
comment by xLogML
atom 0.134852799725 0.162287854536 0.108595044758 O 0.000000000000 0.000000000000 -0.007116519000 -0.010182695000 -0.064966492000
atom -0.027093014247 0.068922118686 6.136190726354 O 0.000000000000 0.000000000000 -0.001875619000 0.002828901000 0.108111772000
atom 0.044722276289 0.069749819059 -6.237162612888 O 0.000000000000 0.000000000000 0.000070604000 0.000068837000 -0.051238090000
atom -0.086638308165 -0.089646753355 -3.221814251186 Al 0.000000000000 0.000000000000 0.005702241000 0.007251481000 0.081542420000
atom -0.003754887306 -0.088764250903 3.217295914222 Al 0.000000000000 0.000000000000 0.003219292000 0.000033475000 -0.073449609000
energy  -710.517187176
charge  0
end
begin
comment by xLogML
atom 0.135854354970 0.163491610558 0.109298023157 O 0.000000000000 0.000000000000 -0.007167292000 -0.010249736000 -0.065337902000
atom -0.027300884203 0.069443683304 6.135695617912 O 0.000000000000 0.000000000000 -0.001892616000 0.002870869000 0.108471538000
atom 0.045058647674 0.070275163131 -6.237334578033 O 0.000000000000 0.000000000000 0.000070136000 0.000068289000 -0.051175411000
atom -0.087284594758 -0.090313826943 -3.221954090975 Al 0.000000000000 0.000000000000 0.005753814000 0.007314811000 0.081677354000
atom -0.003779453756 -0.089431324491 3.217413077288 Al 0.000000000000 0.000000000000 0.003235959000 -0.000004233000 -0.073635580000
energy  -710.517050360
charge  0
end
begin
comment by xLogML
atom 0.136857799942 0.164693476852 0.110001001555 O 0.000000000000 0.000000000000 -0.007217946000 -0.010316553000 -0.065707314000
atom -0.027506864433 0.069965247923 6.135206178651 O 0.000000000000 0.000000000000 -0.001909627000 0.002912971000 0.108827828000
atom 0.045395019058 0.070798617476 -6.237508432906 O 0.000000000000 0.000000000000 0.000069560000 0.000067613000 -0.051110607000
atom -0.087930881350 -0.090980900530 -3.222092041037 Al 0.000000000000 0.000000000000 0.005805508000 0.007378269000 0.081808682000
atom -0.003804020205 -0.090096508352 3.217530240354 Al 0.000000000000 0.000000000000 0.003252505000 -0.000042300000 -0.073818590000
energy  -710.516913854
charge  0
end
begin
comment by xLogML
atom 0.137859355187 0.165895343146 0.110700200500 O 0.000000000000 0.000000000000 -0.007268479000 -0.010383147000 -0.066074725000
atom -0.027712844663 0.070486812541 6.134718629117 O 0.000000000000 0.000000000000 -0.001926650000 0.002955204000 0.109180614000
atom 0.045731390442 0.071323961548 -6.237686067233 O 0.000000000000 0.000000000000 0.000068876000 0.000066808000 -0.051043682000
atom -0.088577167942 -0.091647974118 -3.222228101373 Al 0.000000000000 0.000000000000 0.005857324000 0.007441856000 0.081936412000
atom -0.003828586654 -0.090763581940 3.217645513694 Al 0.000000000000 0.000000000000 0.003268929000 -0.000080720000 -0.073998618000
energy  -710.516777669
charge  0
end
begin
comment by xLogML
atom 0.138860910433 0.167099099167 0.111395619991 O 0.000000000000 0.000000000000 -0.007318891000 -0.010449517000 -0.066440133000
atom -0.027920714619 0.071008377159 6.134236748763 O 0.000000000000 0.000000000000 -0.001943684000 0.002997560000 0.109529869000
atom 0.046067761826 0.071847415893 -6.237863701559 O 0.000000000000 0.000000000000 0.000068081000 0.000065871000 -0.050974640000
atom -0.089223454534 -0.092315047706 -3.222362271981 Al 0.000000000000 0.000000000000 0.005909263000 0.007505571000 0.082060549000
atom -0.003853153104 -0.091428765800 3.217757007580 Al 0.000000000000 0.000000000000 0.003285231000 -0.000119485000 -0.074175645000
energy  -710.516641818
charge  0
end
begin
comment by xLogML