begin
comment by xLogML
atom   1.0063362542199999E-01   1.2117684631000000E-01   8.3336955310000002E-02  O   0.0000000000000000E+00   0.0000000000000000E+00  -5.3266809999999998E-03  -7.7765869999999997E-03  -5.1174458999999999E-02
atom  -2.0106693980000000E-02   5.1239944290999997E-02   6.1552694089119999E+00  O   0.0000000000000000E+00   0.0000000000000000E+00  -1.3113560000000001E-03   1.5200229999999999E-03   9.4018656000000006E-02
atom   3.3289428678999998E-02   5.1920245966999998E-02  -6.2324212881510004E+00  O   0.0000000000000000E+00   0.0000000000000000E+00   3.7453000000000002E-05   2.9386000000000000E-05  -5.2094377999999997E-02
atom  -6.4602203043999995E-02  -6.6873654751000003E-02  -3.2160373561209998E+00 Al   0.0000000000000000E+00   0.0000000000000000E+00   4.0202830000000004E-03   5.1722369999999997E-03   7.4779237999999998E-02
atom  -2.8704951270000002E-03  -6.6113984545999996E-02   3.2123693962509998E+00 Al   0.0000000000000000E+00   0.0000000000000000E+00   2.5803000000000002E-03   1.0549410000000000E-03  -6.5529058000000001E-02
energy  -7.1052192967700000E+02
charge   0.0000000000000000E+00
end
begin
comment by xLogML
atom   1.0164462930199999E-01   1.2239005096600000E-01   8.4113633056999995E-02  O   0.0000000000000000E+00   0.0000000000000000E+00  -5.3808399999999996E-03  -7.8506530000000008E-03  -5.1611640000000000E-02
atom  -2.0310784482000001E-02   5.1759619181999998E-02   6.1546495784959996E+00  O   0.0000000000000000E+00   0.0000000000000000E+00  -1.3274269999999999E-03   1.5543519999999999E-03   9.4479071999999997E-02
atom   3.3625800062999998E-02   5.2443700311999998E-02  -6.2325290025830000E+00  O   0.0000000000000000E+00   0.0000000000000000E+00   3.9397000000000002E-05   3.1680999999999997E-05  -5.2104560000000001E-02
atom  -6.5252269089999995E-02  -6.7546397519000004E-02  -3.2162357774429999E+00 Al   0.0000000000000000E+00   0.0000000000000000E+00   4.0677839999999996E-03   5.2313860000000002E-03   7.5038889999999997E-02
atom  -2.8969513040000001E-03  -6.6781058133999996E-02   3.2125394716700000E+00 Al   0.0000000000000000E+00   0.0000000000000000E+00   2.6010849999999999E-03   1.0332340000000001E-03  -6.5801762000000000E-02
energy  -7.1052179022200005E+02
charge   0.0000000000000000E+00
end
begin
comment by xLogML
atom   1.0265374345400000E-01   1.2360514534800000E-01   8.4888421076999995E-02  O   0.0000000000000000E+00   0.0000000000000000E+00  -5.4349189999999999E-03  -7.9245329999999992E-03  -5.2046948000000003E-02
atom  -2.0514874985000001E-02   5.2277404346999998E-02   6.1540316378069999E+00  O   0.0000000000000000E+00   0.0000000000000000E+00  -1.3435369999999999E-03   1.5889800000000000E-03   9.4937041999999999E-02
atom   3.3962171446999999E-02   5.2969044383999998E-02  -6.2326386067420003E+00  O   0.0000000000000000E+00   0.0000000000000000E+00   4.1306000000000001E-05   3.3935000000000000E-05  -5.2112612000000003E-02
atom  -6.5902335135999995E-02  -6.8217250561000004E-02  -3.2164304193110000E+00 Al   0.0000000000000000E+00   0.0000000000000000E+00   4.1154030000000001E-03   5.2906550000000000E-03   7.5294859000000006E-02
atom  -2.9234074800000001E-03  -6.7448131721999996E-02   3.2127076573619999E+00 Al   0.0000000000000000E+00   0.0000000000000000E+00   2.6217469999999998E-03   1.0109640000000000E-03  -6.6072342000000006E-02
energy  -7.1052165061500000E+02
charge   0.0000000000000000E+00
end
begin
comment by xLogML
atom   1.0366285760700000E-01   1.2481835000400000E-01   8.5661319370000003E-02  O   0.0000000000000000E+00   0.0000000000000000E+00  -5.4889259999999999E-03  -7.9982290000000008E-03  -5.2480402000000002E-02
atom  -2.0718965488000000E-02   5.2797079237999998E-02   6.1534174765719998E+00  O   0.0000000000000000E+00   0.0000000000000000E+00  -1.3596870000000000E-03   1.6239029999999999E-03   9.5392534000000001E-02
atom   3.4298542831999998E-02   5.3492498728999999E-02  -6.2327501006280004E+00  O   0.0000000000000000E+00   0.0000000000000000E+00   4.3174999999999999E-05   3.6145000000000000E-05  -5.2118532000000002E-02
atom  -6.6552401181000004E-02  -6.8889993329000004E-02  -3.2166250611799998E+00 Al   0.0000000000000000E+00   0.0000000000000000E+00   4.1631419999999999E-03   5.3500429999999996E-03   7.5547142999999997E-02
atom  -2.9498636560000000E-03  -6.8113315581999997E-02   3.2128739533280002E+00 Al   0.0000000000000000E+00   0.0000000000000000E+00   2.6422939999999999E-03   9.8813799999999995E-04  -6.6340742999999994E-02
energy  -7.1052151087100003E+02
charge   0.0000000000000000E+00
end
begin
comment by xLogML
atom   1.0467386148700000E-01   1.2603155465900001E-01   8.6432327936000003E-02  O   0.0000000000000000E+00   0.0000000000000000E+00  -5.5428530000000004E-03  -8.0717370000000007E-03  -5.2911983000000003E-02
atom  -2.0924945718000000E-02   5.3316754129999998E-02   6.1528070947910001E+00  O   0.0000000000000000E+00   0.0000000000000000E+00  -1.3758740000000000E-03   1.6591160000000000E-03   9.5845514000000007E-02
atom   3.4634914215999998E-02   5.4017842800999999E-02  -6.2328634842410002E+00  O   0.0000000000000000E+00   0.0000000000000000E+00   4.5005000000000000E-05   3.8309000000000002E-05  -5.2122318000000001E-02
atom  -6.7200577501000003E-02  -6.9560846371000004E-02  -3.2168178133210001E+00 Al   0.0000000000000000E+00   0.0000000000000000E+00   4.2110009999999998E-03   5.4095510000000003E-03   7.5795741999999999E-02
atom  -2.9782095589999998E-03  -6.8780389169999998E-02   3.2130402492929999E+00 Al   0.0000000000000000E+00   0.0000000000000000E+00   2.6627220000000002E-03   9.6476000000000005E-04  -6.6606954999999995E-02
energy  -7.1052137100499999E+02
charge   0.0000000000000000E+00
end
begin
comment by xLogML
atom   1.0568297564000000E-01   1.2724475931500001E-01   8.7201446774999997E-02  O   0.0000000000000000E+00   0.0000000000000000E+00  -5.5966990000000001E-03  -8.1450550000000000E-03  -5.3341686999999999E-02
atom  -2.1129036220000001E-02   5.3834539293999999E-02   6.1521986027360001E+00  O   0.0000000000000000E+00   0.0000000000000000E+00  -1.3920989999999999E-03   1.6946170000000000E-03   9.6295952000000004E-02
atom   3.4971285599999999E-02   5.4541297145999999E-02  -6.2329806473070004E+00  O   0.0000000000000000E+00   0.0000000000000000E+00   4.6792000000000002E-05   4.0423999999999998E-05  -5.2123967000000000E-02
atom  -6.7850643545999997E-02  -7.0233589139000005E-02  -3.2170086757359999E+00 Al   0.0000000000000000E+00   0.0000000000000000E+00   4.2589780000000001E-03   5.4691799999999997E-03   7.6040652000000000E-02
atom  -3.0046657360000002E-03  -6.9445573031000005E-02   3.2132027658040001E+00 Al   0.0000000000000000E+00   0.0000000000000000E+00   2.6830290000000000E-03   9.4083399999999998E-04  -6.6870950999999998E-02
energy  -7.1052123102899998E+02
charge   0.0000000000000000E+00
end
begin
comment by xLogML
atom   1.0669208979200000E-01   1.2845796397000001E-01   8.7968675886999997E-02  O   0.0000000000000000E+00   0.0000000000000000E+00  -5.6504640000000000E-03  -8.2181830000000004E-03  -5.3769508000000001E-02
atom  -2.1335016450000001E-02   5.4354214184999999E-02   6.1515957798620002E+00  O   0.0000000000000000E+00   0.0000000000000000E+00  -1.4083609999999999E-03   1.7304000000000000E-03   9.6743814999999997E-02
atom   3.5307656983999999E-02   5.5066641218000000E-02  -6.2330978103729997E+00  O   0.0000000000000000E+00   0.0000000000000000E+00   4.8535000000000002E-05   4.2487999999999997E-05  -5.2123476000000002E-02
atom  -6.8500709591999998E-02  -7.0904442181000005E-02  -3.2171995381510001E+00 Al   0.0000000000000000E+00   0.0000000000000000E+00   4.3070740000000001E-03   5.5289290000000001E-03   7.6281874999999999E-02
atom  -3.0311219120000002E-03  -7.0112646619000005E-02   3.2133652823159999E+00 Al   0.0000000000000000E+00   0.0000000000000000E+00   2.7032160000000000E-03   9.1636599999999995E-04  -6.7132705000000001E-02
energy  -7.1052109096000004E+02
charge   0.0000000000000000E+00
end
begin
comment by xLogML
atom   1.0769931421800000E-01   1.2967116862600001E-01   8.8734015272999997E-02  O   0.0000000000000000E+00   0.0000000000000000E+00  -5.7041440000000004E-03  -8.2911180000000001E-03  -5.4195440999999997E-02
atom  -2.1539106953000001E-02   5.4873889076999999E-02   6.1509948467150002E+00  O   0.0000000000000000E+00   0.0000000000000000E+00  -1.4246590000000000E-03   1.7664630000000000E-03   9.7189070000000002E-02
atom   3.5644028368999998E-02   5.5590095563000000E-02  -6.2332168631669997E+00  O   0.0000000000000000E+00   0.0000000000000000E+00   5.0231000000000001E-05   4.4496999999999998E-05  -5.2120844999999999E-02
atom  -6.9148885911999997E-02  -7.1575295223000004E-02  -3.2173866211119999E+00 Al   0.0000000000000000E+00   0.0000000000000000E+00   4.3552890000000000E-03   5.5887979999999999E-03   7.6519407999999997E-02
atom  -3.0575780880000001E-03  -7.0779720207000005E-02   3.2135259090999999E+00 Al   0.0000000000000000E+00   0.0000000000000000E+00   2.7232830000000000E-03   8.9136000000000000E-04  -6.7392192000000004E-02
energy  -7.1052095081000004E+02
charge   0.0000000000000000E+00
end
begin
comment by xLogML
atom   1.0870842837100000E-01   1.3088248355500001E-01   8.9497464930999998E-02  O   0.0000000000000000E+00   0.0000000000000000E+00  -5.7577380000000001E-03  -8.3638580000000001E-03  -5.4619481999999997E-02
atom  -2.1745087183000000E-02   5.5393563967999999E-02   6.1503995827480002E+00  O   0.0000000000000000E+00   0.0000000000000000E+00  -1.4409930000000000E-03   1.8027989999999999E-03   9.7631686999999995E-02
atom   3.5980399752999999E-02   5.6115439635999999E-02  -6.2333378056870004E+00  O   0.0000000000000000E+00   0.0000000000000000E+00   5.1878000000000000E-05   4.6449000000000002E-05  -5.2116071999999999E-02
atom  -6.9798951957000005E-02  -7.2246148263999999E-02  -3.2175737040730001E+00 Al   0.0000000000000000E+00   0.0000000000000000E+00   4.4036229999999997E-03   5.6487880000000001E-03   7.6753251999999994E-02
atom  -3.0840342650000001E-03  -7.1444904067999998E-02   3.2136846461580002E+00 Al   0.0000000000000000E+00   0.0000000000000000E+00   2.7432289999999998E-03   8.6582100000000002E-04  -6.7649385000000006E-02
energy  -7.1052081059399995E+02
charge   0.0000000000000000E+00
end
begin
comment by xLogML
atom   1.0971754252400000E-01   1.3209568821000001E-01   9.0259024862999998E-02  O   0.0000000000000000E+00   0.0000000000000000E+00  -5.8112459999999999E-03  -8.4364020000000008E-03  -5.5041626000000003E-02
atom  -2.1949177685000001E-02   5.5913238859999999E-02   6.1498062085090002E+00  O   0.0000000000000000E+00   0.0000000000000000E+00  -1.4573609999999999E-03   1.8394069999999999E-03   9.8071633000000005E-02
atom   3.6316771136999999E-02   5.6638893980999999E-02  -6.2334625276609996E+00  O   0.0000000000000000E+00   0.0000000000000000E+00   5.3474000000000003E-05   4.8341999999999999E-05  -5.2109153999999998E-02
atom  -7.0447128277000004E-02  -7.2917001305999998E-02  -3.2177570075799999E+00 Al   0.0000000000000000E+00   0.0000000000000000E+00   4.4520769999999996E-03   5.7088979999999996E-03   7.6983406000000004E-02
atom  -3.1104904410000000E-03  -7.2111977655999998E-02   3.2138433832160000E+00 Al   0.0000000000000000E+00   0.0000000000000000E+00   2.7630549999999999E-03   8.3975499999999997E-04  -6.7904258999999995E-02
energy  -7.1052067032599996E+02
charge   0.0000000000000000E+00
end
begin
comment by xLogML
atom   9.1765137180000005E-03   1.1058681689000000E-02   7.8707124459999993E-03  O   0.0000000000000000E+00   0.0000000000000000E+00  -4.4454299999999999E-04  -6.9773299999999997E-04  -5.1659239999999997E-03
atom  -1.8216967100000000E-03   4.6562870269999997E-03   6.2230350147489997E+00  O   0.0000000000000000E+00   0.0000000000000000E+00  -9.1842999999999995E-05  -2.9394999999999999E-05   4.6574761999999999E-02
atom   3.0273424580000000E-03   4.7205377410000004E-03  -6.2302632200570001E+00  O   0.0000000000000000E+00   0.0000000000000000E+00  -3.0584999999999999E-05  -3.9008999999999999E-05  -4.3229088999999998E-02
atom  -5.8846094970000000E-03  -6.0943691810000002E-03  -3.1924951386779998E+00 Al   0.0000000000000000E+00   0.0000000000000000E+00   2.9749000000000003E-04   4.0051300000000002E-04   3.7292935999999999E-02
atom  -2.7023094400000002E-04  -6.0187801060000001E-03   3.1921134138479998E+00 Al   0.0000000000000000E+00   0.0000000000000000E+00   2.6948199999999998E-04   3.6562500000000001E-04  -3.5472684999999997E-02
energy  -7.1053211655300004E+02
charge   0.0000000000000000E+00
end
begin
comment by xLogML
atom   1.1072476694900001E-01   1.3330700313900001E-01   9.1016805340999998E-02  O   0.0000000000000000E+00   0.0000000000000000E+00  -5.8646640000000003E-03  -8.5087489999999995E-03  -5.5461867999999998E-02
atom  -2.2155157915000001E-02   5.6431024024000000E-02   6.1492166137230004E+00  O   0.0000000000000000E+00   0.0000000000000000E+00  -1.4737629999999999E-03   1.8762799999999999E-03   9.8508876999999995E-02
atom   3.6653142521000000E-02   5.7164238052999999E-02  -6.2335872496349998E+00  O   0.0000000000000000E+00   0.0000000000000000E+00   5.5016999999999999E-05   5.0173000000000002E-05  -5.2100090000000002E-02
atom  -7.1097194323000004E-02  -7.3587854347000006E-02  -3.2179403110870002E+00 Al   0.0000000000000000E+00   0.0000000000000000E+00   4.5006489999999998E-03   5.7691280000000001E-03   7.7209870000000000E-02
atom  -3.1369466170000000E-03  -7.2777161517000005E-02   3.2140002305470001E+00 Al   0.0000000000000000E+00   0.0000000000000000E+00   2.7827600000000000E-03   8.1316699999999995E-04  -6.8156788999999995E-02
energy  -7.1052053002000002E+02
charge   0.0000000000000000E+00
end
begin
comment by xLogML
atom   1.1173388110200000E-01   1.3451831806699999E-01   9.1774585818999999E-02  O   0.0000000000000000E+00   0.0000000000000000E+00  -5.9179910000000001E-03  -8.5808949999999998E-03  -5.5880209000000000E-02
atom  -2.2359248418000001E-02   5.6950698915000000E-02   6.1486307983910002E+00  O   0.0000000000000000E+00   0.0000000000000000E+00  -1.4901990000000000E-03   1.9134149999999999E-03   9.8943385999999994E-02
atom   3.6989513905999999E-02   5.7687692398000000E-02  -6.2337138613359997E+00  O   0.0000000000000000E+00   0.0000000000000000E+00   5.6505000000000002E-05   5.1940000000000001E-05  -5.2088878999999998E-02
atom  -7.1745370641999998E-02  -7.4258707389000006E-02  -3.2181217248670002E+00 Al   0.0000000000000000E+00   0.0000000000000000E+00   4.5493399999999998E-03   5.8294799999999997E-03   7.7432644999999994E-02
atom  -3.1634027929999999E-03  -7.3444235105000005E-02   3.2141551881510000E+00 Al   0.0000000000000000E+00   0.0000000000000000E+00   2.8023440000000000E-03   7.8606100000000001E-04  -6.8406942999999998E-02
energy  -7.1052038969099999E+02
charge   0.0000000000000000E+00
end
begin
comment by xLogML
atom   1.1374832995400000E-01   1.3693905819800001E-01   9.3282587868000005E-02  O   0.0000000000000000E+00   0.0000000000000000E+00  -6.0243700000000002E-03  -8.7245900000000008E-03  -5.6711145999999997E-02
atom  -2.2769319150000002E-02   5.7990048698000000E-02   6.1474705060880002E+00  O   0.0000000000000000E+00   0.0000000000000000E+00  -1.5231660000000001E-03   1.9884519999999999E-03   9.9804078000000004E-02
atom   3.7660366947000000E-02   5.8736490815000000E-02  -6.2339746436450003E+00  O   0.0000000000000000E+00   0.0000000000000000E+00   5.9305000000000002E-05   5.5268000000000000E-05  -5.2060013000000002E-02
atom  -7.3041723279999998E-02  -7.5600413472000000E-02  -3.2184788832470002E+00 Al   0.0000000000000000E+00   0.0000000000000000E+00   4.6470799999999996E-03   5.9505469999999996E-03   7.7867128999999993E-02
atom  -3.2163151459999998E-03  -7.4776492553999999E-02   3.2144594341780000E+00 Al   0.0000000000000000E+00   0.0000000000000000E+00   2.8411500000000002E-03   7.3032299999999995E-04  -6.8900047000000006E-02
energy  -7.1052010901699998E+02
charge   0.0000000000000000E+00
end
begin
comment by xLogML
atom   1.1475555438000000E-01   1.3815037312699999E-01   9.4034699164999999E-02  O   0.0000000000000000E+00   0.0000000000000000E+00  -6.0774180000000002E-03  -8.7961340000000006E-03  -5.7123738000000000E-02
atom  -2.2975299380000001E-02   5.8509723590000000E-02   6.1468960291170003E+00  O   0.0000000000000000E+00   0.0000000000000000E+00  -1.5396970000000000E-03   2.0263450000000001E-03   1.0023019699999999E-01
atom   3.7996738331000000E-02   5.9261834887000001E-02  -6.2341069245260003E+00  O   0.0000000000000000E+00   0.0000000000000000E+00   6.0613999999999999E-05   5.6824999999999999E-05  -5.2042355999999998E-02
atom  -7.3691789325999998E-02  -7.6269376787000007E-02  -3.2186546278470001E+00 Al   0.0000000000000000E+00   0.0000000000000000E+00   4.6961290000000003E-03   6.0112630000000002E-03   7.8078838999999997E-02
atom  -3.2427713220000002E-03  -7.5443566141000007E-02   3.2146106123279998E+00 Al   0.0000000000000000E+00   0.0000000000000000E+00   2.8603719999999999E-03   7.0170200000000001E-04  -6.9142941999999999E-02
energy  -7.1051996870100004E+02
charge   0.0000000000000000E+00
end
begin
comment by xLogML
atom   1.1576277880600000E-01   1.3935979832800000E-01   9.4783031008999999E-02  O   0.0000000000000000E+00   0.0000000000000000E+00  -6.1303699999999996E-03  -8.8674740000000002E-03  -5.7534407000000003E-02
atom  -2.3181279610000001E-02   5.9029398481000001E-02   6.1463253315999999E+00  O   0.0000000000000000E+00   0.0000000000000000E+00  -1.5562580000000000E-03   2.0644819999999999E-03   1.0065345700000000E-01
atom   3.8333109716000000E-02   5.9785289232000001E-02  -6.2342410951350002E+00  O   0.0000000000000000E+00   0.0000000000000000E+00   6.1859000000000005E-05   5.8307000000000003E-05  -5.2022548000000002E-02
atom  -7.4339965645000006E-02  -7.6940229829000006E-02  -3.2188284827190001E+00 Al   0.0000000000000000E+00   0.0000000000000000E+00   4.7452960000000004E-03   6.0721000000000004E-03   7.8286863999999998E-02
atom  -3.2692274990000002E-03  -7.6108750002000000E-02   3.2147580110249998E+00 Al   0.0000000000000000E+00   0.0000000000000000E+00   2.8794720000000001E-03   6.7258499999999996E-04  -6.9383366000000002E-02
energy  -7.1051982841600000E+02
charge   0.0000000000000000E+00
end
begin
comment by xLogML
atom   1.1677000323099999E-01   1.4057111325700000E-01   9.5529473125000000E-02  O   0.0000000000000000E+00   0.0000000000000000E+00  -6.1832249999999997E-03  -8.9386090000000001E-03  -5.7943147000000000E-02
atom  -2.3385370111999999E-02   5.9549073372000001E-02   6.1457565238100003E+00  O   0.0000000000000000E+00   0.0000000000000000E+00  -1.5728480000000000E-03   2.1028589999999999E-03   1.0107382600000001E-01
atom   3.8669481100000000E-02   6.0310633304000001E-02  -6.2343771554699998E+00  O   0.0000000000000000E+00   0.0000000000000000E+00   6.3038000000000002E-05   5.9710999999999998E-05  -5.2000589999999999E-02
atom  -7.4988141963999999E-02  -7.7609193142999994E-02  -3.2190023375919998E+00 Al   0.0000000000000000E+00   0.0000000000000000E+00   4.7945829999999998E-03   6.1330589999999997E-03   7.8491204999999994E-02
atom  -3.2956836750000001E-03  -7.6775823590000000E-02   3.2149054097210001E+00 Al   0.0000000000000000E+00   0.0000000000000000E+00   2.8984520000000001E-03   6.4298000000000003E-04  -6.9621293000000001E-02
energy  -7.1051968817800002E+02
charge   0.0000000000000000E+00
end
begin
comment by xLogML
atom   1.1777722765699999E-01   1.4178053845899999E-01   9.6274025515000000E-02  O   0.0000000000000000E+00   0.0000000000000000E+00  -6.2359809999999998E-03  -9.0095369999999998E-03  -5.8349956000000001E-02
atom  -2.3591350341999998E-02   6.0068748264000001E-02   6.1451933851999998E+00  O   0.0000000000000000E+00   0.0000000000000000E+00  -1.5894679999999999E-03   2.1414690000000000E-03   1.0149127400000001E-01
atom   3.9005852484000000E-02   6.0834087649000002E-02  -6.2345169952589998E+00  O   0.0000000000000000E+00   0.0000000000000000E+00   6.4148999999999999E-05   6.1036000000000003E-05  -5.1976480999999998E-02
atom  -7.5636318283000006E-02  -7.8280046184999993E-02  -3.2191724130110000E+00 Al   0.0000000000000000E+00   0.0000000000000000E+00   4.8439889999999999E-03   6.1941410000000002E-03   7.8691862000000001E-02
atom  -3.3202501239999998E-03  -7.7441007450999993E-02   3.2150528084180001E+00 Al   0.0000000000000000E+00   0.0000000000000000E+00   2.9173100000000002E-03   6.1289199999999997E-04  -6.9856698999999994E-02
energy  -7.1051954799900000E+02
charge   0.0000000000000000E+00
end
begin
comment by xLogML
atom   1.1878256235600000E-01   1.4298807393400001E-01   9.7016688177999993E-02  O   0.0000000000000000E+00   0.0000000000000000E+00  -6.2886369999999997E-03  -9.0802569999999996E-03  -5.8754829000000001E-02
atom  -2.3797330572000001E-02   6.0590312882000001E-02   6.1446340260439998E+00  O   0.0000000000000000E+00   0.0000000000000000E+00  -1.6061150000000000E-03   2.1803090000000001E-03   1.0190577100000001E-01
atom   3.9342223868000001E-02   6.1359431721000002E-02  -6.2346568350479998E+00  O   0.0000000000000000E+00   0.0000000000000000E+00   6.5190000000000004E-05   6.2277000000000000E-05  -5.1950220999999998E-02
atom  -7.6284494602000000E-02  -7.8949009500000000E-02  -3.2193424884300001E+00 Al   0.0000000000000000E+00   0.0000000000000000E+00   4.8935150000000002E-03   6.2553440000000004E-03   7.8888839000000002E-02
atom  -3.3467063010000002E-03  -7.8108081038999994E-02   3.2151964276600000E+00 Al   0.0000000000000000E+00   0.0000000000000000E+00   2.9360469999999998E-03   5.8232700000000000E-04  -7.0089559999999995E-02
energy  -7.1051940789399998E+02
charge   0.0000000000000000E+00
end
begin
comment by xLogML
atom   1.1978978678200000E-01   1.4419749913499999E-01   9.7757461113999994E-02  O   0.0000000000000000E+00   0.0000000000000000E+00  -6.3411910000000004E-03  -9.1507680000000001E-03  -5.9157763000000002E-02
atom  -2.4001421075000001E-02   6.1109987773000002E-02   6.1440765566150004E+00  O   0.0000000000000000E+00   0.0000000000000000E+00  -1.6227889999999999E-03   2.2193740000000001E-03   1.0231728499999999E-01
atom   3.9678595253000000E-02   6.1882886066000002E-02  -6.2347985645630004E+00  O   0.0000000000000000E+00   0.0000000000000000E+00   6.6159000000000001E-05   6.3434000000000003E-05  -5.1921808999999999E-02
atom  -7.6932670920999993E-02  -7.9619862540999994E-02  -3.2195087843949999E+00 Al   0.0000000000000000E+00   0.0000000000000000E+00   4.9431600000000003E-03   6.3166710000000003E-03   7.9082137999999996E-02
atom  -3.3731624770000001E-03  -7.8773264900000001E-02   3.2153400469030000E+00 Al   0.0000000000000000E+00   0.0000000000000000E+00   2.9546619999999998E-03   5.5129099999999998E-04  -7.0319851000000003E-02
energy  -7.1051926787599996E+02
charge   0.0000000000000000E+00
end
begin
comment by xLogML
atom   1.2079512148100000E-01   1.4540692433700000E-01   9.8494454595999995E-02  O   0.0000000000000000E+00   0.0000000000000000E+00  -6.3936430000000001E-03  -9.2210690000000001E-03  -5.9558752999999999E-02
atom  -2.4207401303999999E-02   6.1629662665000001E-02   6.1435247563670004E+00  O   0.0000000000000000E+00   0.0000000000000000E+00  -1.6394900000000000E-03   2.2586580000000002E-03   1.0272578600000000E-01
atom   4.0014966637000000E-02   6.2408230138000002E-02  -6.2349440735329997E+00  O   0.0000000000000000E+00   0.0000000000000000E+00   6.7052999999999997E-05   6.4502000000000000E-05  -5.1891247000000001E-02
atom  -7.7580847240000000E-02  -8.0288825856000001E-02  -3.2196750803610001E+00 Al   0.0000000000000000E+00   0.0000000000000000E+00   4.9929240000000001E-03   6.3781200000000001E-03   7.9271759999999997E-02
atom  -3.3996186530000001E-03  -7.9440338488000001E-02   3.2154798866920000E+00 Al   0.0000000000000000E+00   0.0000000000000000E+00   2.9731559999999998E-03   5.1978899999999999E-04  -7.0547546000000003E-02
energy  -7.1051912795900000E+02
charge   0.0000000000000000E+00
end
begin
comment by xLogML
atom   1.2180045618000000E-01   1.4661445981200000E-01   9.9231448079000001E-02  O   0.0000000000000000E+00   0.0000000000000000E+00  -6.4459900000000004E-03  -9.2911590000000002E-03  -5.9957795000000001E-02
atom  -2.4413381533999998E-02   6.2149337556000002E-02   6.1429767355719997E+00  O   0.0000000000000000E+00   0.0000000000000000E+00  -1.6562170000000000E-03   2.2981579999999998E-03   1.0313124300000000E-01
atom   4.0351338021000001E-02   6.2931684483999994E-02  -6.2350895825029999E+00  O   0.0000000000000000E+00   0.0000000000000000E+00   6.7871000000000001E-05   6.5480000000000003E-05  -5.1858534999999997E-02
atom  -7.8227133832000001E-02  -8.0957789170999994E-02  -3.2198394865990001E+00 Al   0.0000000000000000E+00   0.0000000000000000E+00   5.0428080000000002E-03   6.4396920000000003E-03   7.9457709000000001E-02
atom  -3.4241851030000002E-03  -8.0105522348999994E-02   3.2156197264810000E+00 Al   0.0000000000000000E+00   0.0000000000000000E+00   2.9915279999999998E-03   4.8782900000000001E-04  -7.0772623000000007E-02
energy  -7.1051898815599998E+02
charge   0.0000000000000000E+00
end
begin
comment by xLogML
atom   1.2280579087900000E-01   1.4782199528699999E-01   9.9964662107000002E-02  O   0.0000000000000000E+00   0.0000000000000000E+00  -6.4982330000000000E-03  -9.3610369999999991E-03  -6.0354886000000003E-02
atom  -2.4619361764000001E-02   6.2670902175000001E-02   6.1424306045049999E+00  O   0.0000000000000000E+00   0.0000000000000000E+00  -1.6729679999999999E-03   2.3378679999999999E-03   1.0353362800000000E-01
atom   4.0687709405000001E-02   6.3457028555999995E-02  -6.2352369811989998E+00  O   0.0000000000000000E+00   0.0000000000000000E+00   6.8609999999999995E-05   6.6365999999999994E-05  -5.1823673000000001E-02
atom  -7.8875310150999994E-02  -8.1626752484999995E-02  -3.2200020031099998E+00 Al   0.0000000000000000E+00   0.0000000000000000E+00   5.0928120000000004E-03   6.5013880000000003E-03   7.9639987999999995E-02
atom  -3.4506412790000001E-03  -8.0772595936999994E-02   3.2157595662700000E+00 Al   0.0000000000000000E+00   0.0000000000000000E+00   3.0097790000000002E-03   4.5541499999999998E-04  -7.0995057000000000E-02
energy  -7.1051884848099996E+02
charge   0.0000000000000000E+00
end
begin
comment by xLogML
atom   1.2381112557800000E-01   1.4902953076200001E-01   1.0069598640900000E-01  O   0.0000000000000000E+00   0.0000000000000000E+00  -6.5503680000000000E-03  -9.4307019999999991E-03  -6.0750022000000001E-02
atom  -2.4825341992999999E-02   6.3190577065999995E-02   6.1418901426180001E+00  O   0.0000000000000000E+00   0.0000000000000000E+00  -1.6897430000000001E-03   2.3777830000000001E-03   1.0393290800000000E-01
atom   4.1024080790000000E-02   6.3980482901000002E-02  -6.2353881593490001E+00  O   0.0000000000000000E+00   0.0000000000000000E+00   6.9268000000000002E-05   6.7156000000000006E-05  -5.1786660999999998E-02
atom  -7.9523486470999993E-02  -8.2295715800000002E-02  -3.2201626298949999E+00 Al   0.0000000000000000E+00   0.0000000000000000E+00   5.1429359999999999E-03   6.5632069999999997E-03   7.9818599000000004E-02
atom  -3.4770974550000001E-03  -8.1437779798000001E-02   3.2158956266050001E+00 Al   0.0000000000000000E+00   0.0000000000000000E+00   3.0279080000000002E-03   4.2255599999999998E-04  -7.1214823999999996E-02
energy  -7.1051870894700005E+02
charge   0.0000000000000000E+00
end
begin
comment by xLogML
atom   1.2481646027700000E-01   1.5023706623700001E-01   1.0142542098399999E-01  O   0.0000000000000000E+00   0.0000000000000000E+00  -6.6023970000000003E-03  -9.5001530000000008E-03  -6.1143199000000002E-02
atom  -2.5031322222999999E-02   6.3712141683999995E-02   6.1413515704580002E+00  O   0.0000000000000000E+00   0.0000000000000000E+00  -1.7065419999999999E-03   2.4178979999999999E-03   1.0432905600000000E-01
atom   4.1360452174000001E-02   6.4505826973000002E-02  -6.2355393374999997E+00  O   0.0000000000000000E+00   0.0000000000000000E+00   6.9844000000000004E-05   6.7848000000000005E-05  -5.1747502000000001E-02
atom  -8.0169773062999994E-02  -8.2964679114999995E-02  -3.2203213669530002E+00 Al   0.0000000000000000E+00   0.0000000000000000E+00   5.1931790000000000E-03   6.6251510000000001E-03   7.9993546999999998E-02
atom  -3.5016639050000002E-03  -8.2104853386000001E-02   3.2160297972129999E+00 Al   0.0000000000000000E+00   0.0000000000000000E+00   3.0459150000000002E-03   3.8925599999999999E-04  -7.1431901000000006E-02
energy  -7.1051856956799998E+02
charge   0.0000000000000000E+00
end
begin
comment by xLogML
atom   1.2582179497599999E-01   1.5144271198500001E-01   1.0215296583200000E-01  O   0.0000000000000000E+00   0.0000000000000000E+00  -6.6543160000000004E-03  -9.5693889999999993E-03  -6.1534415000000002E-02
atom  -2.5237302452999998E-02   6.4231816575999995E-02   6.1408186674780003E+00  O   0.0000000000000000E+00   0.0000000000000000E+00  -1.7233630000000001E-03   2.4582079999999999E-03   1.0472204100000000E-01
atom   4.1696823558000001E-02   6.5029281317999996E-02  -6.2356924053769998E+00  O   0.0000000000000000E+00   0.0000000000000000E+00   7.0334999999999997E-05   6.8440000000000002E-05  -5.1706196000000003E-02
atom  -8.0817949382000001E-02  -8.3633642430000002E-02  -3.2204782142839998E+00 Al   0.0000000000000000E+00   0.0000000000000000E+00   5.2435429999999998E-03   6.6872190000000003E-03   8.0164834000000004E-02
atom  -3.5281200810000002E-03  -8.2770037246999995E-02   3.2161639678220002E+00 Al   0.0000000000000000E+00   0.0000000000000000E+00   3.0638010000000001E-03   3.5552199999999999E-04  -7.1646264000000001E-02
energy  -7.1051843035700006E+02
charge   0.0000000000000000E+00
end
begin
comment by xLogML
atom   1.2682523994799999E-01   1.5265024746000000E-01   1.0287862095300000E-01  O   0.0000000000000000E+00   0.0000000000000000E+00  -6.7061259999999998E-03  -9.6384079999999994E-03  -6.1923664000000003E-02
atom  -2.5443282681999999E-02   6.4753381193999995E-02   6.1402895439520000E+00  O   0.0000000000000000E+00   0.0000000000000000E+00  -1.7402050000000001E-03   2.4987080000000001E-03   1.0511183300000000E-01