begin
comment by xLogML : From a0.log file, All value are in AU
atom   0.0000000000000000E+00   1.4334863382200000E+00  -8.8704346560799996E-01  H   3.5414731013403022E-01   0.0000000000000000E+00   0.0000000000000000E+00   0.0000000000000000E+00   0.0000000000000000E+00
atom   0.0000000000000000E+00  -1.4334863382200000E+00  -8.8704346560799996E-01  H   3.5414731013403022E-01   0.0000000000000000E+00   0.0000000000000000E+00   0.0000000000000000E+00   0.0000000000000000E+00
atom   0.0000000000000000E+00   0.0000000000000000E+00   2.2176133883400001E-01  O  -7.0535969228235607E-01   0.0000000000000000E+00   0.0000000000000000E+00   0.0000000000000000E+00   0.0000000000000000E+00
energy   0.0000000000000000E+00
dipole   0.0000000000000000E+00   0.0000000000000000E+00  -7.8470962435415614E-01
charge   2.9349279857043831E-03
end
