 *******************************************************************************
 ** Site#: 1079         For non-commercial use only    Version 17.163L 64BITS **
 *******************************************************************************
 ** Cite this program as: MOPAC2016, Version: 17.163L, James J. P. Stewart,   **
 ** Stewart Computational Chemistry, web: HTTP://OpenMOPAC.net. Days left:  11**
 *******************************************************************************
 **                                                                           **
 **                                MOPAC2016                                  **
 **                                                                           **
 *******************************************************************************

                              PM6 CALCULATION RESULTS


 *******************************************************************************
 *  CALCULATION DONE:                                Fri Jun  1 15:19:39 2018  *
 *  PM6        - The PM6 Hamiltonian to be used
 *  DOUBLET    - SPIN STATE DEFINED AS A DOUBLET
 *  UHF        - UNRESTRICTED HARTREE-FOCK CALCULATION
 *
 *
 *
 *                 CHARGE ON SYSTEM =    +2
 *
 *
 *
 *  XYZ        - CARTESIAN COORDINATE SYSTEM TO BE USED
 *  T=         - A TIME OF 172800.0 SECONDS REQUESTED
 *  DUMP=N     - RESTART FILE WRITTEN EVERY  7200.000 SECONDS
 *  GNORM=     - EXIT WHEN GRADIENT NORM DROPS BELOW  0.100E-02
 *******************************************************************************
PM6 GNORM=0.001 XYZ UHF CHARGE=2 Doublet

 Mopac file generated by Gabedit
   ATOM   CHEMICAL          X               Y               Z
  NUMBER   SYMBOL      (ANGSTROMS)     (ANGSTROMS)     (ANGSTROMS)
 
     1       C          0.04767600  *  -4.14878100  *   1.89373100  *
     2       C         -4.14874500  *  -0.04748300  *   1.89385200  *
     3       C         -0.04763300  *   4.14802400  *   1.89431300  *
     4       C          4.14920300  *   0.04750600  *   1.89355800  *
     5       C         -1.16757500  *  -3.76814000  *   1.32225600  *
     6       C         -3.77292100  *  -1.25352800  *   1.30032600  *
     7       C         -3.76813900  *   1.16768200  *   1.32215600  *
     8       C         -1.25365200  *   3.77243500  *   1.30055100  *
     9       C          1.16759100  *   3.76749600  *   1.32268600  *
    10       C          3.77332100  *   1.25355300  *   1.30003000  *
    11       C          3.76842000  *  -1.16769200  *   1.32204300  *
    12       C          1.25361600  *  -3.77291400  *   1.30002400  *
    13       C         -2.54736800  *  -2.60505500  *  -0.46095700  *
    14       C         -2.60503000  *   2.54724700  *  -0.46120400  *
    15       C          2.54728000  *   2.60499100  *  -0.46108100  *
    16       C          2.60496200  *  -2.54717500  *  -0.46125500  *
    17       C         -1.20885400  *  -3.03435200  *   0.13308700  *
    18       C         -3.02624900  *  -1.27451200  *   0.11855500  *
    19       C         -3.03442700  *   1.20879400  *   0.13295100  *
    20       C         -1.27453500  *   3.02605800  *   0.11858100  *
    21       C          1.20880100  *   3.03417100  *   0.13322800  *
    22       C          3.02640100  *   1.27450200  *   0.11842500  *
    23       C          3.03451600  *  -1.20882000  *   0.13295200  *
    24       C          1.27441600  *  -3.02603600  *   0.11835500  *
    25       C          0.02724500  *  -2.70878700  *  -0.44898300  *
    26       C         -2.70894800  *  -0.02744500  *  -0.44905900  *
    27       C         -0.02739700  *   2.70892100  *  -0.44886400  *
    28       C          2.70903100  *   0.02736400  *  -0.44905300  *
    29       H          0.05476900  *  -4.74317500  *   2.80170300  *
    30       H         -4.74304900  *  -0.05443400  *   2.80188400  *
    31       H         -0.05464700  *   4.74208900  *   2.80250300  *
    32       H          4.74366800  *   0.05449100  *   2.80148500  *
    33       H         -2.09883800  *  -4.06840200  *   1.79321400  *
    34       H         -3.29312200  *  -3.36889700  *  -0.22357600  *
    35       H         -4.07004500  *  -2.19247100  *   1.75787100  *
    36       H         -4.06839600  *   2.09899500  *   1.79301700  *
    37       H         -3.36882200  *   3.29314300  *  -0.22410300  *
    38       H         -2.19263800  *   4.06947600  *   1.75805200  *
    39       H          2.09887400  *   4.06753100  *   1.79374700  *
    40       H          3.29299300  *   3.36895500  *  -0.22395300  *
    41       H          4.07057800  *   2.19250700  *   1.75746700  *
    42       H          4.06867300  *  -2.09899600  *   1.79292500  *
    43       H          3.36870100  *  -3.29311800  *  -0.22414000  *
    44       H          2.19264500  *  -4.07012800  *   1.75732900  *
    45       H         -2.48445700  *  -2.59164600  *  -1.55527400  *
    46       H         -2.59132100  *   2.48405800  *  -1.55548400  *
    47       H          2.48408100  *   2.59140500  *  -1.55536500  *
    48       H          2.59138600  *  -2.48396700  *  -1.55554600  *
    49       H         -2.35623500  *  -0.72065200  *  -2.25356000  *
    50       H         -0.71985400  *   2.35705900  *  -2.25394800  *
    51       H          2.35661200  *   0.71991600  *  -2.25379400  *
    52       H          0.71950200  *  -2.35626100  *  -2.25391700  *
    53       O         -0.01399800  *  -2.03151400  *  -1.69805600  *
    54       O         -2.03205400  *   0.01350700  *  -1.69823500  *
    55       O          0.01355700  *   2.03200400  *  -1.69813200  *
    56       O          2.03188400  *  -0.01370300  *  -1.69807800  *
    57      Cu          0.52462000  *   0.91409200  *   0.77776000  *
 


          CARTESIAN COORDINATES 

    NO.       ATOM         X         Y         Z

     1         C        0.0477   -4.1488    1.8937
     2         C       -4.1487   -0.0475    1.8939
     3         C       -0.0476    4.1480    1.8943
     4         C        4.1492    0.0475    1.8936
     5         C       -1.1676   -3.7681    1.3223
     6         C       -3.7729   -1.2535    1.3003
     7         C       -3.7681    1.1677    1.3222
     8         C       -1.2537    3.7724    1.3006
     9         C        1.1676    3.7675    1.3227
    10         C        3.7733    1.2536    1.3000
    11         C        3.7684   -1.1677    1.3220
    12         C        1.2536   -3.7729    1.3000
    13         C       -2.5474   -2.6051   -0.4610
    14         C       -2.6050    2.5472   -0.4612
    15         C        2.5473    2.6050   -0.4611
    16         C        2.6050   -2.5472   -0.4613
    17         C       -1.2089   -3.0344    0.1331
    18         C       -3.0262   -1.2745    0.1186
    19         C       -3.0344    1.2088    0.1330
    20         C       -1.2745    3.0261    0.1186
    21         C        1.2088    3.0342    0.1332
    22         C        3.0264    1.2745    0.1184
    23         C        3.0345   -1.2088    0.1330
    24         C        1.2744   -3.0260    0.1184
    25         C        0.0272   -2.7088   -0.4490
    26         C       -2.7089   -0.0274   -0.4491
    27         C       -0.0274    2.7089   -0.4489
    28         C        2.7090    0.0274   -0.4491
    29         H        0.0548   -4.7432    2.8017
    30         H       -4.7430   -0.0544    2.8019
    31         H       -0.0546    4.7421    2.8025
    32         H        4.7437    0.0545    2.8015
    33         H       -2.0988   -4.0684    1.7932
    34         H       -3.2931   -3.3689   -0.2236
    35         H       -4.0700   -2.1925    1.7579
    36         H       -4.0684    2.0990    1.7930
    37         H       -3.3688    3.2931   -0.2241
    38         H       -2.1926    4.0695    1.7581
    39         H        2.0989    4.0675    1.7937
    40         H        3.2930    3.3690   -0.2240
    41         H        4.0706    2.1925    1.7575
    42         H        4.0687   -2.0990    1.7929
    43         H        3.3687   -3.2931   -0.2241
    44         H        2.1926   -4.0701    1.7573
    45         H       -2.4845   -2.5916   -1.5553
    46         H       -2.5913    2.4841   -1.5555
    47         H        2.4841    2.5914   -1.5554
    48         H        2.5914   -2.4840   -1.5555
    49         H       -2.3562   -0.7207   -2.2536
    50         H       -0.7199    2.3571   -2.2539
    51         H        2.3566    0.7199   -2.2538
    52         H        0.7195   -2.3563   -2.2539
    53         O       -0.0140   -2.0315   -1.6981
    54         O       -2.0321    0.0135   -1.6982
    55         O        0.0136    2.0320   -1.6981
    56         O        2.0319   -0.0137   -1.6981
    57        Cu        0.5246    0.9141    0.7778

 General Reference for PM6:
 "Optimization of Parameters for Semiempirical Methods V: Modification of NDDO Approximations
 and Application to 70 Elements", J. J. P. Stewart, J. Mol. Mod., 13, 1173-1213 (2007)
 URL: http://www.springerlink.com/content/ar33482301010477/fulltext.pdf

           Empirical Formula: C28 H24 O4 Cu  =    57 atoms



      MOLECULAR POINT GROUP   :   C1  


 DOUBLET STATE CALCULATION


          UHF CALCULATION, NO. OF ALPHA ELECTRONS =   85
                           NO. OF BETA  ELECTRONS =   84

          Geometry optimization using L-BFGS

  GNORM HAS BEEN SET TOO LOW, RESET TO 0.01
 CYCLE:     1 TIME:   0.473 TIME LEFT:  2.00D  GRAD.:   239.267 HEAT:  390.8690
 CYCLE:     2 TIME:   0.098 TIME LEFT:  2.00D  GRAD.:   234.702 HEAT:  390.3000
 CYCLE:     3 TIME:   0.156 TIME LEFT:  2.00D  GRAD.:    74.148 HEAT:  373.0481
 CYCLE:     4 TIME:   0.160 TIME LEFT:  2.00D  GRAD.:   235.205 HEAT:  390.3002
 CYCLE:     5 TIME:   0.145 TIME LEFT:  2.00D  GRAD.:    74.878 HEAT:  373.0612
 CYCLE:     6 TIME:   0.105 TIME LEFT:  2.00D  GRAD.:    54.037 HEAT:  370.9062
 CYCLE:     7 TIME:   0.125 TIME LEFT:  2.00D  GRAD.:    48.198 HEAT:  367.5418
 CYCLE:     8 TIME:   0.121 TIME LEFT:  2.00D  GRAD.:    61.492 HEAT:  365.3084
 CYCLE:     9 TIME:   0.113 TIME LEFT:  2.00D  GRAD.:    52.588 HEAT:  364.0559
 CYCLE:    10 TIME:   0.102 TIME LEFT:  2.00D  GRAD.:    31.130 HEAT:  363.2056
 CYCLE:    11 TIME:   0.121 TIME LEFT:  2.00D  GRAD.:    27.865 HEAT:  361.9752
 CYCLE:    12 TIME:   0.125 TIME LEFT:  2.00D  GRAD.:    29.862 HEAT:  360.9023
 CYCLE:    13 TIME:   0.125 TIME LEFT:  2.00D  GRAD.:    71.072 HEAT:  360.9011
 CYCLE:    14 TIME:   0.105 TIME LEFT:  2.00D  GRAD.:    17.964 HEAT:  359.9274
 CYCLE:    15 TIME:   0.105 TIME LEFT:  2.00D  GRAD.:    13.570 HEAT:  359.7394
 CYCLE:    16 TIME:   0.102 TIME LEFT:  2.00D  GRAD.:    16.848 HEAT:  359.4608
 CYCLE:    17 TIME:   0.117 TIME LEFT:  2.00D  GRAD.:    19.833 HEAT:  359.0367
 CYCLE:    18 TIME:   0.121 TIME LEFT:  2.00D  GRAD.:    43.412 HEAT:  358.6417
 CYCLE:    19 TIME:   0.117 TIME LEFT:  2.00D  GRAD.:    25.944 HEAT:  358.0599
 CYCLE:    20 TIME:   0.105 TIME LEFT:  2.00D  GRAD.:    20.688 HEAT:  357.6624
 CYCLE:    21 TIME:   0.125 TIME LEFT:  2.00D  GRAD.:    26.501 HEAT:  356.8075
 CYCLE:    22 TIME:   0.129 TIME LEFT:  2.00D  GRAD.:    36.303 HEAT:  355.9510
 CYCLE:    23 TIME:   0.133 TIME LEFT:  2.00D  GRAD.:    49.706 HEAT:  355.0268
 CYCLE:    24 TIME:   0.129 TIME LEFT:  2.00D  GRAD.:    62.139 HEAT:  354.2653
 CYCLE:    25 TIME:   0.133 TIME LEFT:  2.00D  GRAD.:   297.505 HEAT:  367.9200
 CYCLE:    26 TIME:   0.137 TIME LEFT:  2.00D  GRAD.:    59.809 HEAT:  353.1254
 CYCLE:    27 TIME:   0.125 TIME LEFT:  2.00D  GRAD.:    76.580 HEAT:  353.5875
 CYCLE:    28 TIME:   0.133 TIME LEFT:  2.00D  GRAD.:   198.598 HEAT:  359.9740
 CYCLE:    29 TIME:   0.199 TIME LEFT:  2.00D  GRAD.:   548.287 HEAT:  409.3780
 CYCLE:    30 TIME:   0.156 TIME LEFT:  2.00D  GRAD.:   179.407 HEAT:  364.2193
 CYCLE:    31 TIME:   0.152 TIME LEFT:  2.00D  GRAD.:   147.095 HEAT:  354.9600
 CYCLE:    32 TIME:   0.152 TIME LEFT:  2.00D  GRAD.:   266.827 HEAT:  372.5405
 CYCLE:    33 TIME:   0.160 TIME LEFT:  2.00D  GRAD.:    82.518 HEAT:  350.7356
 CYCLE:    34 TIME:   0.109 TIME LEFT:  2.00D  GRAD.:    56.358 HEAT:  347.3740
 CYCLE:    35 TIME:   0.133 TIME LEFT:  2.00D  GRAD.:    75.042 HEAT:  346.6877
 CYCLE:    36 TIME:   0.109 TIME LEFT:  2.00D  GRAD.:    42.063 HEAT:  345.5627
 CYCLE:    37 TIME:   0.102 TIME LEFT:  2.00D  GRAD.:    18.982 HEAT:  345.1827
 CYCLE:    38 TIME:   0.098 TIME LEFT:  2.00D  GRAD.:    16.697 HEAT:  344.9119
 CYCLE:    39 TIME:   0.105 TIME LEFT:  2.00D  GRAD.:    25.514 HEAT:  344.4607
 CYCLE:    40 TIME:   0.105 TIME LEFT:  2.00D  GRAD.:    19.080 HEAT:  343.8316
 CYCLE:    41 TIME:   0.105 TIME LEFT:  2.00D  GRAD.:    23.931 HEAT:  343.2617
 CYCLE:    42 TIME:   0.109 TIME LEFT:  2.00D  GRAD.:    38.013 HEAT:  342.7142
 CYCLE:    43 TIME:   0.105 TIME LEFT:  2.00D  GRAD.:    36.681 HEAT:  341.7442
 CYCLE:    44 TIME:   0.117 TIME LEFT:  2.00D  GRAD.:    51.633 HEAT:  339.8774
 CYCLE:    45 TIME:   0.137 TIME LEFT:  2.00D  GRAD.:    70.873 HEAT:  337.4016
 CYCLE:    46 TIME:   0.133 TIME LEFT:  2.00D  GRAD.:    89.360 HEAT:  337.8952
 CYCLE:    47 TIME:   0.129 TIME LEFT:  2.00D  GRAD.:    90.030 HEAT:  336.5885
 CYCLE:    48 TIME:   0.137 TIME LEFT:  2.00D  GRAD.:   369.125 HEAT:  363.4673
 CYCLE:    49 TIME:   0.137 TIME LEFT:  2.00D  GRAD.:    66.778 HEAT:  330.4645
 CYCLE:    50 TIME:   0.137 TIME LEFT:  2.00D  GRAD.:    85.766 HEAT:  333.2986
 CYCLE:    51 TIME:   0.125 TIME LEFT:  2.00D  GRAD.:    49.857 HEAT:  325.8482
 CYCLE:    52 TIME:   0.133 TIME LEFT:  2.00D  GRAD.:    83.690 HEAT:  325.2488
 CYCLE:    53 TIME:   0.117 TIME LEFT:  2.00D  GRAD.:    42.501 HEAT:  323.4088
 CYCLE:    54 TIME:   0.113 TIME LEFT:  2.00D  GRAD.:    46.862 HEAT:  322.1107
 CYCLE:    55 TIME:   0.113 TIME LEFT:  2.00D  GRAD.:    27.672 HEAT:  320.6540
 CYCLE:    56 TIME:   0.121 TIME LEFT:  2.00D  GRAD.:    24.695 HEAT:  319.2208
 CYCLE:    57 TIME:   0.117 TIME LEFT:  2.00D  GRAD.:    51.722 HEAT:  318.7218
 CYCLE:    58 TIME:   0.102 TIME LEFT:  2.00D  GRAD.:    21.997 HEAT:  318.0289
 CYCLE:    59 TIME:   0.105 TIME LEFT:  2.00D  GRAD.:    16.185 HEAT:  317.6413
 CYCLE:    60 TIME:   0.102 TIME LEFT:  2.00D  GRAD.:    19.643 HEAT:  317.3085
 CYCLE:    61 TIME:   0.113 TIME LEFT:  2.00D  GRAD.:    38.047 HEAT:  316.9604
 CYCLE:    62 TIME:   0.109 TIME LEFT:  2.00D  GRAD.:    14.174 HEAT:  316.5696
 CYCLE:    63 TIME:   0.102 TIME LEFT:  2.00D  GRAD.:    10.634 HEAT:  316.4401
 CYCLE:    64 TIME:   0.105 TIME LEFT:  2.00D  GRAD.:    13.799 HEAT:  316.3080
 CYCLE:    65 TIME:   0.109 TIME LEFT:  2.00D  GRAD.:    17.003 HEAT:  316.0999
 CYCLE:    66 TIME:   0.113 TIME LEFT:  2.00D  GRAD.:    26.041 HEAT:  316.0077
 CYCLE:    67 TIME:   0.105 TIME LEFT:  2.00D  GRAD.:     8.937 HEAT:  315.8315
 CYCLE:    68 TIME:   0.098 TIME LEFT:  2.00D  GRAD.:     7.592 HEAT:  315.7673
 CYCLE:    69 TIME:   0.102 TIME LEFT:  2.00D  GRAD.:     9.863 HEAT:  315.6753
 CYCLE:    70 TIME:   0.105 TIME LEFT:  2.00D  GRAD.:    17.835 HEAT:  315.5651
 CYCLE:    71 TIME:   0.105 TIME LEFT:  2.00D  GRAD.:    10.033 HEAT:  315.4485
 CYCLE:    72 TIME:   0.102 TIME LEFT:  2.00D  GRAD.:     6.918 HEAT:  315.3575
 CYCLE:    73 TIME:   0.105 TIME LEFT:  2.00D  GRAD.:     8.604 HEAT:  315.2932
 CYCLE:    74 TIME:   0.105 TIME LEFT:  2.00D  GRAD.:    12.700 HEAT:  315.2243
 CYCLE:    75 TIME:   0.102 TIME LEFT:  2.00D  GRAD.:     7.633 HEAT:  315.1507
 CYCLE:    76 TIME:   0.105 TIME LEFT:  2.00D  GRAD.:     6.952 HEAT:  315.0747
 CYCLE:    77 TIME:   0.102 TIME LEFT:  2.00D  GRAD.:     8.821 HEAT:  315.0212
 CYCLE:    78 TIME:   0.105 TIME LEFT:  2.00D  GRAD.:     6.888 HEAT:  314.9529
 CYCLE:    79 TIME:   0.102 TIME LEFT:  2.00D  GRAD.:     6.179 HEAT:  314.8901
 CYCLE:    80 TIME:   0.109 TIME LEFT:  2.00D  GRAD.:    10.298 HEAT:  314.8225
 CYCLE:    81 TIME:   0.105 TIME LEFT:  2.00D  GRAD.:     7.302 HEAT:  314.7703
 CYCLE:    82 TIME:   0.105 TIME LEFT:  2.00D  GRAD.:     6.284 HEAT:  314.7131
 CYCLE:    83 TIME:   0.102 TIME LEFT:  2.00D  GRAD.:     8.067 HEAT:  314.6458
 CYCLE:    84 TIME:   0.105 TIME LEFT:  2.00D  GRAD.:    10.341 HEAT:  314.5943
 CYCLE:    85 TIME:   0.098 TIME LEFT:  2.00D  GRAD.:     6.191 HEAT:  314.5478
 CYCLE:    86 TIME:   0.105 TIME LEFT:  2.00D  GRAD.:     6.289 HEAT:  314.4798
 CYCLE:    87 TIME:   0.102 TIME LEFT:  2.00D  GRAD.:     7.139 HEAT:  314.4204
 CYCLE:    88 TIME:   0.109 TIME LEFT:  2.00D  GRAD.:    11.277 HEAT:  314.3561
 CYCLE:    89 TIME:   0.117 TIME LEFT:  2.00D  GRAD.:     7.277 HEAT:  314.2902
 CYCLE:    90 TIME:   0.102 TIME LEFT:  2.00D  GRAD.:     8.037 HEAT:  314.2340
 CYCLE:    91 TIME:   0.105 TIME LEFT:  2.00D  GRAD.:     7.772 HEAT:  314.1699
 CYCLE:    92 TIME:   0.117 TIME LEFT:  2.00D  GRAD.:     9.573 HEAT:  314.0698
 CYCLE:    93 TIME:   0.113 TIME LEFT:  2.00D  GRAD.:    11.943 HEAT:  313.9974
 CYCLE:    94 TIME:   0.105 TIME LEFT:  2.00D  GRAD.:     8.532 HEAT:  313.9208
 CYCLE:    95 TIME:   0.113 TIME LEFT:  2.00D  GRAD.:    11.496 HEAT:  313.8319
 CYCLE:    96 TIME:   0.109 TIME LEFT:  2.00D  GRAD.:    11.645 HEAT:  313.7261
 CYCLE:    97 TIME:   0.117 TIME LEFT:  2.00D  GRAD.:    12.676 HEAT:  313.6175
 CYCLE:    98 TIME:   0.105 TIME LEFT:  2.00D  GRAD.:     7.301 HEAT:  313.5387
 CYCLE:    99 TIME:   0.102 TIME LEFT:  2.00D  GRAD.:     7.536 HEAT:  313.4773
 CYCLE:   100 TIME:   0.105 TIME LEFT:  2.00D  GRAD.:     9.733 HEAT:  313.3927
 CYCLE:   101 TIME:   0.113 TIME LEFT:  2.00D  GRAD.:    13.015 HEAT:  313.2559
 CYCLE:   102 TIME:   0.117 TIME LEFT:  2.00D  GRAD.:    10.866 HEAT:  313.1465
 CYCLE:   103 TIME:   0.105 TIME LEFT:  2.00D  GRAD.:    10.451 HEAT:  313.0402
 CYCLE:   104 TIME:   0.113 TIME LEFT:  2.00D  GRAD.:    14.029 HEAT:  312.9315
 CYCLE:   105 TIME:   0.105 TIME LEFT:  2.00D  GRAD.:    14.260 HEAT:  312.8095
 CYCLE:   106 TIME:   0.102 TIME LEFT:  2.00D  GRAD.:     8.925 HEAT:  312.7057
 CYCLE:   107 TIME:   0.113 TIME LEFT:  2.00D  GRAD.:     8.471 HEAT:  312.6055
 CYCLE:   108 TIME:   0.113 TIME LEFT:  2.00D  GRAD.:     9.734 HEAT:  312.5408
 CYCLE:   109 TIME:   0.105 TIME LEFT:  2.00D  GRAD.:    11.686 HEAT:  312.4400
 CYCLE:   110 TIME:   0.105 TIME LEFT:  2.00D  GRAD.:     7.088 HEAT:  312.3624
 CYCLE:   111 TIME:   0.102 TIME LEFT:  2.00D  GRAD.:     7.660 HEAT:  312.3067
 CYCLE:   112 TIME:   0.105 TIME LEFT:  2.00D  GRAD.:    11.957 HEAT:  312.2477
 CYCLE:   113 TIME:   0.105 TIME LEFT:  2.00D  GRAD.:     6.242 HEAT:  312.1745
 CYCLE:   114 TIME:   0.102 TIME LEFT:  2.00D  GRAD.:     5.725 HEAT:  312.1237
 CYCLE:   115 TIME:   0.105 TIME LEFT:  2.00D  GRAD.:     8.924 HEAT:  312.0758
 CYCLE:   116 TIME:   0.105 TIME LEFT:  2.00D  GRAD.:     6.726 HEAT:  312.0224
 CYCLE:   117 TIME:   0.102 TIME LEFT:  2.00D  GRAD.:     6.125 HEAT:  311.9679
 CYCLE:   118 TIME:   0.105 TIME LEFT:  2.00D  GRAD.:     7.487 HEAT:  311.9365
 CYCLE:   119 TIME:   0.102 TIME LEFT:  2.00D  GRAD.:     5.612 HEAT:  311.9060
 CYCLE:   120 TIME:   0.105 TIME LEFT:  2.00D  GRAD.:     5.499 HEAT:  311.8473
 CYCLE:   121 TIME:   0.102 TIME LEFT:  2.00D  GRAD.:     8.397 HEAT:  311.8079
 CYCLE:   122 TIME:   0.105 TIME LEFT:  2.00D  GRAD.:     4.720 HEAT:  311.7651
 CYCLE:   123 TIME:   0.105 TIME LEFT:  2.00D  GRAD.:     4.162 HEAT:  311.7328
 CYCLE:   124 TIME:   0.113 TIME LEFT:  2.00D  GRAD.:     6.334 HEAT:  311.6850
 CYCLE:   125 TIME:   0.117 TIME LEFT:  2.00D  GRAD.:     9.147 HEAT:  311.6561
 CYCLE:   126 TIME:   0.105 TIME LEFT:  2.00D  GRAD.:     5.947 HEAT:  311.6165
 CYCLE:   127 TIME:   0.105 TIME LEFT:  2.00D  GRAD.:     3.963 HEAT:  311.5899
 CYCLE:   128 TIME:   0.102 TIME LEFT:  2.00D  GRAD.:     5.549 HEAT:  311.5683
 CYCLE:   129 TIME:   0.102 TIME LEFT:  2.00D  GRAD.:     7.379 HEAT:  311.5540
 CYCLE:   130 TIME:   0.098 TIME LEFT:  2.00D  GRAD.:     3.211 HEAT:  311.5383
 CYCLE:   131 TIME:   0.105 TIME LEFT:  2.00D  GRAD.:     2.779 HEAT:  311.5266
 CYCLE:   132 TIME:   0.105 TIME LEFT:  2.00D  GRAD.:     3.007 HEAT:  311.5155
 CYCLE:   133 TIME:   0.113 TIME LEFT:  2.00D  GRAD.:     4.346 HEAT:  311.4928
 CYCLE:   134 TIME:   0.105 TIME LEFT:  2.00D  GRAD.:     7.439 HEAT:  311.4870
 CYCLE:   135 TIME:   0.105 TIME LEFT:  2.00D  GRAD.:     3.399 HEAT:  311.4716
 CYCLE:   136 TIME:   0.102 TIME LEFT:  2.00D  GRAD.:     4.972 HEAT:  311.4627
 CYCLE:   137 TIME:   0.102 TIME LEFT:  2.00D  GRAD.:     2.548 HEAT:  311.4487
 CYCLE:   138 TIME:   0.102 TIME LEFT:  2.00D  GRAD.:     2.927 HEAT:  311.4343
 CYCLE:   139 TIME:   0.105 TIME LEFT:  2.00D  GRAD.:     4.613 HEAT:  311.4214
 CYCLE:   140 TIME:   0.105 TIME LEFT:  2.00D  GRAD.:     3.530 HEAT:  311.4037
 CYCLE:   141 TIME:   0.105 TIME LEFT:  2.00D  GRAD.:     5.435 HEAT:  311.3895
 CYCLE:   142 TIME:   0.098 TIME LEFT:  2.00D  GRAD.:     3.206 HEAT:  311.3749
 CYCLE:   143 TIME:   0.105 TIME LEFT:  2.00D  GRAD.:     3.498 HEAT:  311.3587
 CYCLE:   144 TIME:   0.102 TIME LEFT:  2.00D  GRAD.:     4.153 HEAT:  311.3437
 CYCLE:   145 TIME:   0.105 TIME LEFT:  2.00D  GRAD.:     3.380 HEAT:  311.3252
 CYCLE:   146 TIME:   0.105 TIME LEFT:  2.00D  GRAD.:     3.473 HEAT:  311.3134
 CYCLE:   147 TIME:   0.105 TIME LEFT:  2.00D  GRAD.:     5.784 HEAT:  311.2994
 CYCLE:   148 TIME:   0.098 TIME LEFT:  2.00D  GRAD.:     4.161 HEAT:  311.2819
 CYCLE:   149 TIME:   0.105 TIME LEFT:  2.00D  GRAD.:     3.838 HEAT:  311.2607
 CYCLE:   150 TIME:   0.105 TIME LEFT:  2.00D  GRAD.:     7.155 HEAT:  311.2337
 CYCLE:   151 TIME:   0.105 TIME LEFT:  2.00D  GRAD.:     3.882 HEAT:  311.2110
 CYCLE:   152 TIME:   0.105 TIME LEFT:  2.00D  GRAD.:     4.069 HEAT:  311.1957
 CYCLE:   153 TIME:   0.105 TIME LEFT:  2.00D  GRAD.:     4.600 HEAT:  311.1691
 CYCLE:   154 TIME:   0.102 TIME LEFT:  2.00D  GRAD.:     5.686 HEAT:  311.1298
 CYCLE:   155 TIME:   0.121 TIME LEFT:  2.00D  GRAD.:     5.373 HEAT:  311.0794
 CYCLE:   156 TIME:   0.117 TIME LEFT:  2.00D  GRAD.:     6.309 HEAT:  311.0518
 CYCLE:   157 TIME:   0.113 TIME LEFT:  2.00D  GRAD.:    13.797 HEAT:  311.0282
 CYCLE:   158 TIME:   0.117 TIME LEFT:  2.00D  GRAD.:    26.461 HEAT:  311.0718
 CYCLE:   159 TIME:   0.117 TIME LEFT:  2.00D  GRAD.:    10.717 HEAT:  310.9411
 CYCLE:   160 TIME:   0.117 TIME LEFT:  2.00D  GRAD.:     7.283 HEAT:  310.8933
 CYCLE:   161 TIME:   0.105 TIME LEFT:  2.00D  GRAD.:    13.142 HEAT:  310.8962
 CYCLE:   162 TIME:   0.117 TIME LEFT:  2.00D  GRAD.:     9.718 HEAT:  310.8425
 CYCLE:   163 TIME:   0.105 TIME LEFT:  2.00D  GRAD.:    36.534 HEAT:  311.0628
 CYCLE:   164 TIME:   0.102 TIME LEFT:  2.00D  GRAD.:     5.774 HEAT:  310.7875
 CYCLE:   165 TIME:   0.102 TIME LEFT:  2.00D  GRAD.:     6.783 HEAT:  310.7779
 CYCLE:   166 TIME:   0.102 TIME LEFT:  2.00D  GRAD.:     3.553 HEAT:  310.7621
 CYCLE:   167 TIME:   0.102 TIME LEFT:  2.00D  GRAD.:     3.709 HEAT:  310.7431
 CYCLE:   168 TIME:   0.105 TIME LEFT:  2.00D  GRAD.:     4.838 HEAT:  310.7274
 CYCLE:   169 TIME:   0.102 TIME LEFT:  2.00D  GRAD.:     6.189 HEAT:  310.7146
 CYCLE:   170 TIME:   0.102 TIME LEFT:  2.00D  GRAD.:     2.623 HEAT:  310.7018
 CYCLE:   171 TIME:   0.105 TIME LEFT:  2.00D  GRAD.:     2.867 HEAT:  310.6937
 CYCLE:   172 TIME:   0.105 TIME LEFT:  2.00D  GRAD.:     3.436 HEAT:  310.6814
 CYCLE:   173 TIME:   0.102 TIME LEFT:  2.00D  GRAD.:     8.908 HEAT:  310.6764
 CYCLE:   174 TIME:   0.102 TIME LEFT:  2.00D  GRAD.:     2.722 HEAT:  310.6605
 CYCLE:   175 TIME:   0.098 TIME LEFT:  2.00D  GRAD.:     1.984 HEAT:  310.6555
 CYCLE:   176 TIME:   0.105 TIME LEFT:  2.00D  GRAD.:     2.209 HEAT:  310.6496
 CYCLE:   177 TIME:   0.102 TIME LEFT:  2.00D  GRAD.:     3.172 HEAT:  310.6436
 CYCLE:   178 TIME:   0.105 TIME LEFT:  2.00D  GRAD.:     2.235 HEAT:  310.6377
 CYCLE:   179 TIME:   0.102 TIME LEFT:  2.00D  GRAD.:     1.567 HEAT:  310.6340
 CYCLE:   180 TIME:   0.102 TIME LEFT:  2.00D  GRAD.:     2.267 HEAT:  310.6295
 CYCLE:   181 TIME:   0.102 TIME LEFT:  2.00D  GRAD.:     2.294 HEAT:  310.6257
 CYCLE:   182 TIME:   0.105 TIME LEFT:  2.00D  GRAD.:     2.341 HEAT:  310.6205
 CYCLE:   183 TIME:   0.105 TIME LEFT:  2.00D  GRAD.:     1.682 HEAT:  310.6172
 CYCLE:   184 TIME:   0.102 TIME LEFT:  2.00D  GRAD.:     1.735 HEAT:  310.6149
 CYCLE:   185 TIME:   0.105 TIME LEFT:  2.00D  GRAD.:     1.951 HEAT:  310.6112
 CYCLE:   186 TIME:   0.105 TIME LEFT:  2.00D  GRAD.:     3.572 HEAT:  310.6089
 CYCLE:   187 TIME:   0.098 TIME LEFT:  2.00D  GRAD.:     1.503 HEAT:  310.6056
 CYCLE:   188 TIME:   0.105 TIME LEFT:  2.00D  GRAD.:     1.644 HEAT:  310.6030
 CYCLE:   189 TIME:   0.102 TIME LEFT:  2.00D  GRAD.:     1.739 HEAT:  310.6005
 CYCLE:   190 TIME:   0.117 TIME LEFT:  2.00D  GRAD.:     2.809 HEAT:  310.5954
 CYCLE:   191 TIME:   0.105 TIME LEFT:  2.00D  GRAD.:     2.576 HEAT:  310.5917
 CYCLE:   192 TIME:   0.098 TIME LEFT:  2.00D  GRAD.:     1.903 HEAT:  310.5891
 CYCLE:   193 TIME:   0.105 TIME LEFT:  2.00D  GRAD.:     1.619 HEAT:  310.5861
 CYCLE:   194 TIME:   0.105 TIME LEFT:  2.00D  GRAD.:     1.737 HEAT:  310.5833
 CYCLE:   195 TIME:   0.102 TIME LEFT:  2.00D  GRAD.:     1.343 HEAT:  310.5800
 CYCLE:   196 TIME:   0.109 TIME LEFT:  2.00D  GRAD.:     3.289 HEAT:  310.5779
 CYCLE:   197 TIME:   0.098 TIME LEFT:  2.00D  GRAD.:     1.547 HEAT:  310.5746
 CYCLE:   198 TIME:   0.105 TIME LEFT:  2.00D  GRAD.:     0.867 HEAT:  310.5727
 CYCLE:   199 TIME:   0.121 TIME LEFT:  2.00D  GRAD.:     1.936 HEAT:  310.5706
 CYCLE:   200 TIME:   0.102 TIME LEFT:  2.00D  GRAD.:     1.476 HEAT:  310.5687
 CYCLE:   201 TIME:   0.102 TIME LEFT:  2.00D  GRAD.:     1.085 HEAT:  310.5664
 CYCLE:   202 TIME:   0.105 TIME LEFT:  2.00D  GRAD.:     1.130 HEAT:  310.5658
 CYCLE:   203 TIME:   0.105 TIME LEFT:  2.00D  GRAD.:     1.641 HEAT:  310.5650
 CYCLE:   204 TIME:   0.102 TIME LEFT:  2.00D  GRAD.:     0.844 HEAT:  310.5636
 CYCLE:   205 TIME:   0.105 TIME LEFT:  2.00D  GRAD.:     0.775 HEAT:  310.5628
 CYCLE:   206 TIME:   0.102 TIME LEFT:  2.00D  GRAD.:     0.714 HEAT:  310.5621
 CYCLE:   207 TIME:   0.117 TIME LEFT:  2.00D  GRAD.:     0.817 HEAT:  310.5607
 CYCLE:   208 TIME:   0.109 TIME LEFT:  2.00D  GRAD.:     2.056 HEAT:  310.5604
 CYCLE:   209 TIME:   0.102 TIME LEFT:  2.00D  GRAD.:     0.733 HEAT:  310.5595
 CYCLE:   210 TIME:   0.105 TIME LEFT:  2.00D  GRAD.:     1.219 HEAT:  310.5592
 CYCLE:   211 TIME:   0.102 TIME LEFT:  2.00D  GRAD.:     0.486 HEAT:  310.5587
 CYCLE:   212 TIME:   0.102 TIME LEFT:  2.00D  GRAD.:     0.469 HEAT:  310.5583
 CYCLE:   213 TIME:   0.105 TIME LEFT:  2.00D  GRAD.:     0.609 HEAT:  310.5579
 CYCLE:   214 TIME:   0.105 TIME LEFT:  2.00D  GRAD.:     0.733 HEAT:  310.5574
 CYCLE:   215 TIME:   0.098 TIME LEFT:  2.00D  GRAD.:     0.490 HEAT:  310.5571
 CYCLE:   216 TIME:   0.102 TIME LEFT:  2.00D  GRAD.:     0.349 HEAT:  310.5570
 CYCLE:   217 TIME:   0.105 TIME LEFT:  2.00D  GRAD.:     0.617 HEAT:  310.5567
 CYCLE:   218 TIME:   0.098 TIME LEFT:  2.00D  GRAD.:     0.565 HEAT:  310.5565
 CYCLE:   219 TIME:   0.098 TIME LEFT:  2.00D  GRAD.:     0.315 HEAT:  310.5563
 CYCLE:   220 TIME:   0.102 TIME LEFT:  2.00D  GRAD.:     0.348 HEAT:  310.5560
 CYCLE:   221 TIME:   0.102 TIME LEFT:  2.00D  GRAD.:     0.428 HEAT:  310.5558
 CYCLE:   222 TIME:   0.102 TIME LEFT:  2.00D  GRAD.:     0.545 HEAT:  310.5557
 CYCLE:   223 TIME:   0.098 TIME LEFT:  2.00D  GRAD.:     0.301 HEAT:  310.5555
 CYCLE:   224 TIME:   0.102 TIME LEFT:  2.00D  GRAD.:     0.223 HEAT:  310.5554
 CYCLE:   225 TIME:   0.102 TIME LEFT:  2.00D  GRAD.:     0.260 HEAT:  310.5553
 CYCLE:   226 TIME:   0.105 TIME LEFT:  2.00D  GRAD.:     0.559 HEAT:  310.5552
 CYCLE:   227 TIME:   0.098 TIME LEFT:  2.00D  GRAD.:     1.146 HEAT:  310.5552
 CYCLE:   228 TIME:   0.102 TIME LEFT:  2.00D  GRAD.:     0.229 HEAT:  310.5550
 CYCLE:   229 TIME:   0.102 TIME LEFT:  2.00D  GRAD.:     0.258 HEAT:  310.5549
 CYCLE:   230 TIME:   0.105 TIME LEFT:  2.00D  GRAD.:     1.304 HEAT:  310.5551
 CYCLE:   231 TIME:   0.102 TIME LEFT:  2.00D  GRAD.:     0.272 HEAT:  310.5547
 CYCLE:   232 TIME:   0.098 TIME LEFT:  2.00D  GRAD.:     0.231 HEAT:  310.5546
 CYCLE:   233 TIME:   0.098 TIME LEFT:  2.00D  GRAD.:     0.616 HEAT:  310.5546
 CYCLE:   234 TIME:   0.102 TIME LEFT:  2.00D  GRAD.:     0.289 HEAT:  310.5544
 CYCLE:   235 TIME:   0.098 TIME LEFT:  2.00D  GRAD.:     0.184 HEAT:  310.5544
 CYCLE:   236 TIME:   0.102 TIME LEFT:  2.00D  GRAD.:     0.154 HEAT:  310.5543
 CYCLE:   237 TIME:   0.098 TIME LEFT:  2.00D  GRAD.:     0.488 HEAT:  310.5543
 CYCLE:   238 TIME:   0.098 TIME LEFT:  2.00D  GRAD.:     0.235 HEAT:  310.5542
 CYCLE:   239 TIME:   0.102 TIME LEFT:  2.00D  GRAD.:     0.131 HEAT:  310.5541
 CYCLE:   240 TIME:   0.102 TIME LEFT:  2.00D  GRAD.:     0.204 HEAT:  310.5540
 CYCLE:   241 TIME:   0.105 TIME LEFT:  2.00D  GRAD.:     0.318 HEAT:  310.5540
 CYCLE:   242 TIME:   0.098 TIME LEFT:  2.00D  GRAD.:     0.198 HEAT:  310.5539
 CYCLE:   243 TIME:   0.102 TIME LEFT:  2.00D  GRAD.:     0.180 HEAT:  310.5539
 CYCLE:   244 TIME:   0.105 TIME LEFT:  2.00D  GRAD.:     0.408 HEAT:  310.5538
 CYCLE:   245 TIME:   0.102 TIME LEFT:  2.00D  GRAD.:     0.764 HEAT:  310.5538
 CYCLE:   246 TIME:   0.102 TIME LEFT:  2.00D  GRAD.:     0.143 HEAT:  310.5537
 CYCLE:   247 TIME:   0.098 TIME LEFT:  2.00D  GRAD.:     0.159 HEAT:  310.5537
 CYCLE:   248 TIME:   0.102 TIME LEFT:  2.00D  GRAD.:     0.485 HEAT:  310.5538
 CYCLE:   249 TIME:   0.098 TIME LEFT:  2.00D  GRAD.:     0.216 HEAT:  310.5537
 CYCLE:   250 TIME:   0.102 TIME LEFT:  2.00D  GRAD.:     0.123 HEAT:  310.5536
 CYCLE:   251 TIME:   0.098 TIME LEFT:  2.00D  GRAD.:     0.077 HEAT:  310.5536
 CYCLE:   252 TIME:   0.102 TIME LEFT:  2.00D  GRAD.:     0.170 HEAT:  310.5536
 CYCLE:   253 TIME:   0.098 TIME LEFT:  2.00D  GRAD.:     0.330 HEAT:  310.5536
 CYCLE:   254 TIME:   0.102 TIME LEFT:  2.00D  GRAD.:     0.243 HEAT:  310.5535
 CYCLE:   255 TIME:   0.098 TIME LEFT:  2.00D  GRAD.:     0.077 HEAT:  310.5535
 CYCLE:   256 TIME:   0.098 TIME LEFT:  2.00D  GRAD.:     0.074 HEAT:  310.5535
 CYCLE:   257 TIME:   0.102 TIME LEFT:  2.00D  GRAD.:     0.506 HEAT:  310.5535
 CYCLE:   258 TIME:   0.098 TIME LEFT:  2.00D  GRAD.:     0.108 HEAT:  310.5535
 CYCLE:   259 TIME:   0.102 TIME LEFT:  2.00D  GRAD.:     0.139 HEAT:  310.5534
 CYCLE:   260 TIME:   0.098 TIME LEFT:  2.00D  GRAD.:     0.713 HEAT:  310.5535
 CYCLE:   261 TIME:   0.102 TIME LEFT:  2.00D  GRAD.:     0.096 HEAT:  310.5534
 CYCLE:   262 TIME:   0.098 TIME LEFT:  2.00D  GRAD.:     0.062 HEAT:  310.5534
 CYCLE:   263 TIME:   0.102 TIME LEFT:  2.00D  GRAD.:     0.098 HEAT:  310.5534
 CYCLE:   264 TIME:   0.098 TIME LEFT:  2.00D  GRAD.:     0.095 HEAT:  310.5534
 CYCLE:   265 TIME:   0.098 TIME LEFT:  2.00D  GRAD.:     0.169 HEAT:  310.5534
 CYCLE:   266 TIME:   0.102 TIME LEFT:  2.00D  GRAD.:     0.048 HEAT:  310.5534
 CYCLE:   267 TIME:   0.098 TIME LEFT:  2.00D  GRAD.:     0.062 HEAT:  310.5534
 CYCLE:   268 TIME:   0.102 TIME LEFT:  2.00D  GRAD.:     0.341 HEAT:  310.5534
 CYCLE:   269 TIME:   0.098 TIME LEFT:  2.00D  GRAD.:     0.057 HEAT:  310.5534
 CYCLE:   270 TIME:   0.098 TIME LEFT:  2.00D  GRAD.:     0.073 HEAT:  310.5534
 CYCLE:   271 TIME:   0.102 TIME LEFT:  2.00D  GRAD.:     0.067 HEAT:  310.5533
 CYCLE:   272 TIME:   0.098 TIME LEFT:  2.00D  GRAD.:     0.113 HEAT:  310.5533
 CYCLE:   273 TIME:   0.098 TIME LEFT:  2.00D  GRAD.:     0.146 HEAT:  310.5533
 CYCLE:   274 TIME:   0.102 TIME LEFT:  2.00D  GRAD.:     0.078 HEAT:  310.5533
 CYCLE:   275 TIME:   0.098 TIME LEFT:  2.00D  GRAD.:     0.072 HEAT:  310.5533
 CYCLE:   276 TIME:   0.102 TIME LEFT:  2.00D  GRAD.:     0.216 HEAT:  310.5533
 CYCLE:   277 TIME:   0.098 TIME LEFT:  2.00D  GRAD.:     0.042 HEAT:  310.5533
 CYCLE:   278 TIME:   0.098 TIME LEFT:  2.00D  GRAD.:     0.057 HEAT:  310.5533
 CYCLE:   279 TIME:   0.102 TIME LEFT:  2.00D  GRAD.:     0.345 HEAT:  310.5533
 CYCLE:   280 TIME:   0.102 TIME LEFT:  2.00D  GRAD.:     0.068 HEAT:  310.5533
 CYCLE:   281 TIME:   0.098 TIME LEFT:  2.00D  GRAD.:     0.046 HEAT:  310.5533
 CYCLE:   282 TIME:   0.102 TIME LEFT:  2.00D  GRAD.:     0.188 HEAT:  310.5533
 CYCLE:   283 TIME:   0.098 TIME LEFT:  2.00D  GRAD.:     0.064 HEAT:  310.5533
 CYCLE:   284 TIME:   0.098 TIME LEFT:  2.00D  GRAD.:     0.058 HEAT:  310.5532
 CYCLE:   285 TIME:   0.102 TIME LEFT:  2.00D  GRAD.:     0.176 HEAT:  310.5532
 CYCLE:   286 TIME:   0.098 TIME LEFT:  2.00D  GRAD.:     0.047 HEAT:  310.5532
 CYCLE:   287 TIME:   0.102 TIME LEFT:  2.00D  GRAD.:     0.069 HEAT:  310.5532
 CYCLE:   288 TIME:   0.098 TIME LEFT:  2.00D  GRAD.:     0.170 HEAT:  310.5532
 CYCLE:   289 TIME:   0.098 TIME LEFT:  2.00D  GRAD.:     0.059 HEAT:  310.5532
 CYCLE:   290 TIME:   0.102 TIME LEFT:  2.00D  GRAD.:     0.062 HEAT:  310.5532
 CYCLE:   291 TIME:   0.102 TIME LEFT:  2.00D  GRAD.:     0.459 HEAT:  310.5533
 CYCLE:   292 TIME:   0.098 TIME LEFT:  2.00D  GRAD.:     0.047 HEAT:  310.5532
 CYCLE:   293 TIME:   0.102 TIME LEFT:  2.00D  GRAD.:     0.046 HEAT:  310.5532
 CYCLE:   294 TIME:   0.098 TIME LEFT:  2.00D  GRAD.:     0.104 HEAT:  310.5532
 CYCLE:   295 TIME:   0.102 TIME LEFT:  2.00D  GRAD.:     0.054 HEAT:  310.5532
 CYCLE:   296 TIME:   0.098 TIME LEFT:  2.00D  GRAD.:     0.059 HEAT:  310.5532
 CYCLE:   297 TIME:   0.098 TIME LEFT:  2.00D  GRAD.:     0.278 HEAT:  310.5532
 CYCLE:   298 TIME:   0.102 TIME LEFT:  2.00D  GRAD.:     0.042 HEAT:  310.5532
 CYCLE:   299 TIME:   0.098 TIME LEFT:  2.00D  GRAD.:     0.042 HEAT:  310.5531
 CYCLE:   300 TIME:   0.102 TIME LEFT:  2.00D  GRAD.:     0.325 HEAT:  310.5532
 CYCLE:   301 TIME:   0.098 TIME LEFT:  2.00D  GRAD.:     0.047 HEAT:  310.5531
 CYCLE:   302 TIME:   0.102 TIME LEFT:  2.00D  GRAD.:     0.037 HEAT:  310.5531
 CYCLE:   303 TIME:   0.098 TIME LEFT:  2.00D  GRAD.:     0.105 HEAT:  310.5531
 CYCLE:   304 TIME:   0.098 TIME LEFT:  2.00D  GRAD.:     0.069 HEAT:  310.5531
 CYCLE:   305 TIME:   0.102 TIME LEFT:  2.00D  GRAD.:     0.055 HEAT:  310.5531
 CYCLE:   306 TIME:   0.098 TIME LEFT:  2.00D  GRAD.:     0.170 HEAT:  310.5531
 CYCLE:   307 TIME:   0.098 TIME LEFT:  2.00D  GRAD.:     0.036 HEAT:  310.5531
 CYCLE:   308 TIME:   0.102 TIME LEFT:  2.00D  GRAD.:     0.061 HEAT:  310.5531
 CYCLE:   309 TIME:   0.102 TIME LEFT:  2.00D  GRAD.:     0.248 HEAT:  310.5531
 CYCLE:   310 TIME:   0.098 TIME LEFT:  2.00D  GRAD.:     0.056 HEAT:  310.5531
 CYCLE:   311 TIME:   0.102 TIME LEFT:  2.00D  GRAD.:     0.032 HEAT:  310.5531
 CYCLE:   312 TIME:   0.098 TIME LEFT:  2.00D  GRAD.:     0.073 HEAT:  310.5531
 CYCLE:   313 TIME:   0.098 TIME LEFT:  2.00D  GRAD.:     0.109 HEAT:  310.5531
 CYCLE:   314 TIME:   0.102 TIME LEFT:  2.00D  GRAD.:     0.091 HEAT:  310.5531
 CYCLE:   315 TIME:   0.098 TIME LEFT:  2.00D  GRAD.:     0.078 HEAT:  310.5531
 CYCLE:   316 TIME:   0.098 TIME LEFT:  2.00D  GRAD.:     0.085 HEAT:  310.5531
 CYCLE:   317 TIME:   0.102 TIME LEFT:  2.00D  GRAD.:     0.046 HEAT:  310.5531
 CYCLE:   318 TIME:   0.102 TIME LEFT:  2.00D  GRAD.:     0.039 HEAT:  310.5531
 CYCLE:   319 TIME:   0.098 TIME LEFT:  2.00D  GRAD.:     0.172 HEAT:  310.5531
 CYCLE:   320 TIME:   0.098 TIME LEFT:  2.00D  GRAD.:     0.071 HEAT:  310.5531
 CYCLE:   321 TIME:   0.102 TIME LEFT:  2.00D  GRAD.:     0.078 HEAT:  310.5531
 CYCLE:   322 TIME:   0.098 TIME LEFT:  2.00D  GRAD.:     0.221 HEAT:  310.5531
 CYCLE:   323 TIME:   0.098 TIME LEFT:  2.00D  GRAD.:     0.047 HEAT:  310.5531
 CYCLE:   324 TIME:   0.102 TIME LEFT:  2.00D  GRAD.:     0.048 HEAT:  310.5531
 CYCLE:   325 TIME:   0.102 TIME LEFT:  2.00D  GRAD.:     0.627 HEAT:  310.5532
 CYCLE:   326 TIME:   0.098 TIME LEFT:  2.00D  GRAD.:     0.049 HEAT:  310.5531
 CYCLE:   327 TIME:   0.102 TIME LEFT:  2.00D  GRAD.:     0.035 HEAT:  310.5531
 CYCLE:   328 TIME:   0.102 TIME LEFT:  2.00D  GRAD.:     0.328 HEAT:  310.5531
 CYCLE:   329 TIME:   0.098 TIME LEFT:  2.00D  GRAD.:     0.046 HEAT:  310.5531
 CYCLE:   330 TIME:   0.102 TIME LEFT:  2.00D  GRAD.:     0.054 HEAT:  310.5531
 CYCLE:   331 TIME:   0.098 TIME LEFT:  2.00D  GRAD.:     0.108 HEAT:  310.5531
 CYCLE:   332 TIME:   0.098 TIME LEFT:  2.00D  GRAD.:     0.073 HEAT:  310.5531
 CYCLE:   333 TIME:   0.102 TIME LEFT:  2.00D  GRAD.:     0.101 HEAT:  310.5531
 CYCLE:   334 TIME:   0.098 TIME LEFT:  2.00D  GRAD.:     0.226 HEAT:  310.5531
 CYCLE:   335 TIME:   0.098 TIME LEFT:  2.00D  GRAD.:     0.038 HEAT:  310.5530
 CYCLE:   336 TIME:   0.102 TIME LEFT:  2.00D  GRAD.:     0.050 HEAT:  310.5530
 CYCLE:   337 TIME:   0.102 TIME LEFT:  2.00D  GRAD.:     0.299 HEAT:  310.5531
 CYCLE:   338 TIME:   0.098 TIME LEFT:  2.00D  GRAD.:     0.041 HEAT:  310.5530
 CYCLE:   339 TIME:   0.102 TIME LEFT:  2.00D  GRAD.:     0.030 HEAT:  310.5530
 CYCLE:   340 TIME:   0.098 TIME LEFT:  2.00D  GRAD.:     0.362 HEAT:  310.5531
 CYCLE:   341 TIME:   0.098 TIME LEFT:  2.00D  GRAD.:     0.033 HEAT:  310.5530
 CYCLE:   342 TIME:   0.102 TIME LEFT:  2.00D  GRAD.:     0.028 HEAT:  310.5530
 CYCLE:   343 TIME:   0.098 TIME LEFT:  2.00D  GRAD.:     0.486 HEAT:  310.5531
 CYCLE:   344 TIME:   0.102 TIME LEFT:  2.00D  GRAD.:     0.065 HEAT:  310.5530
 CYCLE:   345 TIME:   0.098 TIME LEFT:  2.00D  GRAD.:     0.049 HEAT:  310.5530
 CYCLE:   346 TIME:   0.098 TIME LEFT:  2.00D  GRAD.:     0.107 HEAT:  310.5530
 CYCLE:   347 TIME:   0.102 TIME LEFT:  2.00D  GRAD.:     0.136 HEAT:  310.5530
 CYCLE:   348 TIME:   0.098 TIME LEFT:  2.00D  GRAD.:     0.071 HEAT:  310.5530
 CYCLE:   349 TIME:   0.102 TIME LEFT:  2.00D  GRAD.:     0.118 HEAT:  310.5530
 CYCLE:   350 TIME:   0.098 TIME LEFT:  2.00D  GRAD.:     0.229 HEAT:  310.5530
 CYCLE:   351 TIME:   0.102 TIME LEFT:  2.00D  GRAD.:     0.042 HEAT:  310.5530
 CYCLE:   352 TIME:   0.098 TIME LEFT:  2.00D  GRAD.:     0.071 HEAT:  310.5530
 CYCLE:   353 TIME:   0.098 TIME LEFT:  2.00D  GRAD.:     0.024 HEAT:  310.5530
 CYCLE:   354 TIME:   0.102 TIME LEFT:  2.00D  GRAD.:     0.472 HEAT:  310.5531
 CYCLE:   355 TIME:   0.098 TIME LEFT:  2.00D  GRAD.:     0.163 HEAT:  310.5530
 CYCLE:   356 TIME:   0.098 TIME LEFT:  2.00D  GRAD.:     0.509 HEAT:  310.5531
 CYCLE:   357 TIME:   0.102 TIME LEFT:  2.00D  GRAD.:     0.307 HEAT:  310.5530
 CYCLE:   358 TIME:   0.098 TIME LEFT:  2.00D  GRAD.:     0.620 HEAT:  310.5531
 CYCLE:   359 TIME:   0.098 TIME LEFT:  2.00D  GRAD.:     0.099 HEAT:  310.5530
 CYCLE:   360 TIME:   0.102 TIME LEFT:  2.00D  GRAD.:     0.148 HEAT:  310.5530
 CYCLE:   361 TIME:   0.098 TIME LEFT:  2.00D  GRAD.:     0.111 HEAT:  310.5530
 CYCLE:   362 TIME:   0.094 TIME LEFT:  2.00D  GRAD.:     0.073 HEAT:  310.5530
 CYCLE:   363 TIME:   0.102 TIME LEFT:  2.00D  GRAD.:     0.044 HEAT:  310.5530
 CYCLE:   364 TIME:   0.098 TIME LEFT:  2.00D  GRAD.:     0.068 HEAT:  310.5530
 CYCLE:   365 TIME:   0.098 TIME LEFT:  2.00D  GRAD.:     0.185 HEAT:  310.5530
 CYCLE:   366 TIME:   0.102 TIME LEFT:  2.00D  GRAD.:     0.071 HEAT:  310.5530
 CYCLE:   367 TIME:   0.098 TIME LEFT:  2.00D  GRAD.:     0.106 HEAT:  310.5530
 CYCLE:   368 TIME:   0.102 TIME LEFT:  2.00D  GRAD.:     0.109 HEAT:  310.5530
 CYCLE:   369 TIME:   0.098 TIME LEFT:  2.00D  GRAD.:     0.055 HEAT:  310.5530
 CYCLE:   370 TIME:   0.102 TIME LEFT:  2.00D  GRAD.:     0.047 HEAT:  310.5530
 CYCLE:   371 TIME:   0.098 TIME LEFT:  2.00D  GRAD.:     0.508 HEAT:  310.5531
 CYCLE:   372 TIME:   0.102 TIME LEFT:  2.00D  GRAD.:     0.037 HEAT:  310.5530
 CYCLE:   373 TIME:   0.102 TIME LEFT:  2.00D  GRAD.:     0.092 HEAT:  310.5530
 CYCLE:   374 TIME:   0.098 TIME LEFT:  2.00D  GRAD.:     0.130 HEAT:  310.5530
 CYCLE:   375 TIME:   0.102 TIME LEFT:  2.00D  GRAD.:     0.048 HEAT:  310.5530
 CYCLE:   376 TIME:   0.098 TIME LEFT:  2.00D  GRAD.:     0.182 HEAT:  310.5530
 CYCLE:   377 TIME:   0.098 TIME LEFT:  2.00D  GRAD.:     0.044 HEAT:  310.5530
 CYCLE:   378 TIME:   0.102 TIME LEFT:  2.00D  GRAD.:     0.172 HEAT:  310.5530
 CYCLE:   379 TIME:   0.098 TIME LEFT:  2.00D  GRAD.:     0.047 HEAT:  310.5530
 CYCLE:   380 TIME:   0.102 TIME LEFT:  2.00D  GRAD.:     0.027 HEAT:  310.5530
 CYCLE:   381 TIME:   0.098 TIME LEFT:  2.00D  GRAD.:     0.312 HEAT:  310.5530
 CYCLE:   382 TIME:   0.098 TIME LEFT:  2.00D  GRAD.:     0.026 HEAT:  310.5530
 CYCLE:   383 TIME:   0.102 TIME LEFT:  2.00D  GRAD.:     0.068 HEAT:  310.5530
 CYCLE:   384 TIME:   0.098 TIME LEFT:  2.00D  GRAD.:     0.138 HEAT:  310.5530
 CYCLE:   385 TIME:   0.098 TIME LEFT:  2.00D  GRAD.:     0.050 HEAT:  310.5530
 CYCLE:   386 TIME:   0.102 TIME LEFT:  2.00D  GRAD.:     0.061 HEAT:  310.5530
 CYCLE:   387 TIME:   0.102 TIME LEFT:  2.00D  GRAD.:     0.250 HEAT:  310.5530
 CYCLE:   388 TIME:   0.102 TIME LEFT:  2.00D  GRAD.:     0.096 HEAT:  310.5530
 CYCLE:   389 TIME:   0.098 TIME LEFT:  2.00D  GRAD.:     0.156 HEAT:  310.5530
 CYCLE:   390 TIME:   0.098 TIME LEFT:  2.00D  GRAD.:     0.029 HEAT:  310.5530
 CYCLE:   391 TIME:   0.102 TIME LEFT:  2.00D  GRAD.:     0.147 HEAT:  310.5530
 CYCLE:   392 TIME:   0.098 TIME LEFT:  2.00D  GRAD.:     0.036 HEAT:  310.5530
 CYCLE:   393 TIME:   0.102 TIME LEFT:  2.00D  GRAD.:     0.218 HEAT:  310.5530
 CYCLE:   394 TIME:   0.098 TIME LEFT:  2.00D  GRAD.:     0.054 HEAT:  310.5530
 CYCLE:   395 TIME:   0.098 TIME LEFT:  2.00D  GRAD.:     0.027 HEAT:  310.5530
 CYCLE:   396 TIME:   0.102 TIME LEFT:  2.00D  GRAD.:     0.125 HEAT:  310.5530
 CYCLE:   397 TIME:   0.098 TIME LEFT:  2.00D  GRAD.:     0.034 HEAT:  310.5530
 CYCLE:   398 TIME:   0.102 TIME LEFT:  2.00D  GRAD.:     0.058 HEAT:  310.5530
 CYCLE:   399 TIME:   0.102 TIME LEFT:  2.00D  GRAD.:     0.251 HEAT:  310.5530
 CYCLE:   400 TIME:   0.098 TIME LEFT:  2.00D  GRAD.:     0.061 HEAT:  310.5530
 CYCLE:   401 TIME:   0.098 TIME LEFT:  2.00D  GRAD.:     0.067 HEAT:  310.5530
 CYCLE:   402 TIME:   0.102 TIME LEFT:  2.00D  GRAD.:     0.028 HEAT:  310.5530
 CYCLE:   403 TIME:   0.098 TIME LEFT:  2.00D  GRAD.:     0.030 HEAT:  310.5530
 CYCLE:   404 TIME:   0.102 TIME LEFT:  2.00D  GRAD.:     0.305 HEAT:  310.5530
 CYCLE:   405 TIME:   0.098 TIME LEFT:  2.00D  GRAD.:     0.039 HEAT:  310.5530
 CYCLE:   406 TIME:   0.102 TIME LEFT:  2.00D  GRAD.:     0.156 HEAT:  310.5530
 CYCLE:   407 TIME:   0.098 TIME LEFT:  2.00D  GRAD.:     0.052 HEAT:  310.5530
 CYCLE:   408 TIME:   0.098 TIME LEFT:  2.00D  GRAD.:     0.044 HEAT:  310.5530
 CYCLE:   409 TIME:   0.102 TIME LEFT:  2.00D  GRAD.:     0.326 HEAT:  310.5530
 CYCLE:   410 TIME:   0.098 TIME LEFT:  2.00D  GRAD.:     0.038 HEAT:  310.5530
 CYCLE:   411 TIME:   0.098 TIME LEFT:  2.00D  GRAD.:     0.056 HEAT:  310.5530
 CYCLE:   412 TIME:   0.102 TIME LEFT:  2.00D  GRAD.:     0.272 HEAT:  310.5530
 CYCLE:   413 TIME:   0.098 TIME LEFT:  2.00D  GRAD.:     0.030 HEAT:  310.5530
 CYCLE:   414 TIME:   0.102 TIME LEFT:  2.00D  GRAD.:     0.107 HEAT:  310.5530


 HEAT OF FORMATION IS ESSENTIALLY STATIONARY

 -------------------------------------------------------------------------------
PM6 GNORM=0.001 XYZ UHF CHARGE=2 Doublet

 Mopac file generated by Gabedit


     HERBERTS TEST WAS SATISFIED IN BFGS                      
     SCF FIELD WAS ACHIEVED                                   


                              PM6 CALCULATION
                                                       MOPAC2016 (Version: 17.163L)
                                                       Fri Jun  1 15:20:24 2018
                                                       No. of days remaining =  11




          FINAL HEAT OF FORMATION =        310.55306 KCAL/MOL =    1299.35400 KJ/MOL


          TOTAL ENERGY            =      -5562.75745 EV
          ELECTRONIC ENERGY       =     -54364.82665 EV  POINT GROUP:     C1  
          CORE-CORE REPULSION     =      48802.06921 EV
          COSMO AREA              =        384.68 SQUARE ANGSTROMS
          COSMO VOLUME            =        505.76 CUBIC ANGSTROMS

          GRADIENT NORM           =          0.03928
          IONIZATION POTENTIAL    =         14.500963 EV
          ALPHA SOMO LUMO (EV)    =        -14.501 -8.062
          BETA  SOMO LUMO (EV)    =        -14.502 -9.833
          NO. OF ALPHA ELECTRONS  =         85
          NO. OF BETA  ELECTRONS  =         84
          MOLECULAR WEIGHT        =        488.0412

          MOLECULAR DIMENSIONS (Angstroms)

            Atom       Atom       Distance
            H    43    H    37     9.75522
            H    33    H    40     9.23367
            H    32    H    49     6.39269


          SCF CALCULATIONS        =        416
 
          WALL-CLOCK TIME         =         44.168 SECONDS
          COMPUTATION TIME        =         44.196 SECONDS




   ATOM   CHEMICAL          X               Y               Z
  NUMBER   SYMBOL      (ANGSTROMS)     (ANGSTROMS)     (ANGSTROMS)
 
     1       C         -0.05538237  *  -4.26507726  *   1.86923184  *
     2       C         -3.95004631  *  -0.09724346  *   2.02919796  *
     3       C          0.06269748  *   4.17835460  *   1.86804011  *
     4       C          4.00521952  *   0.20450444  *   1.97356710  *
     5       C         -1.21244246  *  -3.77409493  *   1.22668025  *
     6       C         -3.51815195  *  -1.25097147  *   1.36578241  *
     7       C         -3.69730122  *   1.16927517  *   1.49709357  *
     8       C         -1.21097428  *   3.85301702  *   1.38911978  *
     9       C          1.20937537  *   3.72391149  *   1.21249466  *
    10       C          3.57256585  *   1.33170611  *   1.27394520  *
    11       C          3.72405482  *  -1.08285936  *   1.49961984  *
    12       C          1.24553758  *  -3.91288762  *   1.40963163  *
    13       C         -2.35308004  *  -2.39715570  *  -0.56243820  *
    14       C         -2.70408316  *   2.66790275  *  -0.28523955  *
    15       C          2.34472120  *   2.42622423  *  -0.64448872  *
    16       C          2.72403657  *  -2.63869720  *  -0.21966656  *
    17       C         -1.13640276  *  -2.95024457  *   0.11433864  *
    18       C         -2.84535566  *  -1.15681880  *   0.13974104  *
    19       C         -3.03709201  *   1.30759778  *   0.26602136  *
    20       C         -1.35175251  *   3.09257166  *   0.22234361  *
    21       C          1.11247009  *   2.95608614  *   0.04077690  *
    22       C          2.85871261  *   1.20404925  *   0.06866971  *
    23       C          3.03158878  *  -1.25651500  *   0.29589908  *
    24       C          1.39969046  *  -3.11084429  *   0.30389619  *
    25       C          0.20028959  *  -2.65637641  *  -0.38706801  *
    26       C         -2.65256505  *   0.12907886  *  -0.39659939  *
    27       C         -0.17851039  *   2.69392028  *  -0.44530784  *
    28       C          2.63107165  *  -0.09897096  *  -0.39868576  *
    29       H         -0.15676468  *  -4.92507823  *   2.74624959  *
    30       H         -4.49368674  *  -0.18807972  *   2.97720070  *
    31       H          0.16085502  *   4.79692641  *   2.76658613  *
    32       H          4.57393945  *   0.32680368  *   2.90392387  *
    33       H         -2.19871404  *  -4.06318614  *   1.62722614  *
    34       H         -3.17352522  *  -3.16423903  *  -0.57530457  *
    35       H         -3.72637784  *  -2.22815977  *   1.80581328  *
    36       H         -4.02689510  *   2.06183844  *   2.04017147  *
    37       H         -3.48553214  *   3.41327927  *  -0.00139603  *
    38       H         -2.09702355  *   4.20306276  *   1.92559576  *
    39       H          2.19355941  *   3.98510533  *   1.60992635  *
    40       H          3.13481672  *   3.21879508  *  -0.66695358  *
    41       H          3.79738857  *   2.33018249  *   1.66552262  *
    42       H          4.06693099  *  -1.95102921  *   2.06906850  *
    43       H          3.54715980  *  -3.34706124  *   0.05676126  *
    44       H          2.12194187  *  -4.29397628  *   1.95862425  *
    45       H         -2.16382060  *  -2.20618611  *  -1.64376310  *
    46       H         -2.72820326  *   2.66199057  *  -1.40055340  *
    47       H          2.13735229  *   2.23252729  *  -1.72000042  *
    48       H          2.74013117  *  -2.64748762  *  -1.34222429  *
    49       H         -2.65290489  *  -0.03821588  *  -2.37639885  *
    50       H         -1.13287339  *   2.31299342  *  -2.14083957  *
    51       H          2.50238532  *   0.16728771  *  -2.36559691  *
    52       H          1.32636491  *  -2.04444337  *  -1.90084090  *
    53       O          0.29864763  *  -1.99293853  *  -1.54492927  *
    54       O         -2.02616824  *   0.27739037  *  -1.65893656  *
    55       O         -0.26345915  *   2.02330772  *  -1.68906078  *
    56       O          1.96860033  *  -0.30486869  *  -1.64479082  *
    57      Cu         -0.03805653  *   0.03498185  *  -1.53687235  *

                             CARTESIAN COORDINATES

   1    C       -0.055382366    -4.265077255     1.869231837
   2    C       -3.950046315    -0.097243459     2.029197965
   3    C        0.062697483     4.178354596     1.868040106
   4    C        4.005219521     0.204504438     1.973567105
   5    C       -1.212442458    -3.774094932     1.226680253
   6    C       -3.518151949    -1.250971468     1.365782405
   7    C       -3.697301215     1.169275170     1.497093571
   8    C       -1.210974284     3.853017021     1.389119784
   9    C        1.209375373     3.723911492     1.212494659
  10    C        3.572565853     1.331706110     1.273945197
  11    C        3.724054816    -1.082859364     1.499619841
  12    C        1.245537580    -3.912887624     1.409631628
  13    C       -2.353080041    -2.397155698    -0.562438204
  14    C       -2.704083157     2.667902750    -0.285239552
  15    C        2.344721202     2.426224228    -0.644488723
  16    C        2.724036573    -2.638697198    -0.219666561
  17    C       -1.136402761    -2.950244568     0.114338640
  18    C       -2.845355665    -1.156818798     0.139741044
  19    C       -3.037092012     1.307597777     0.266021363
  20    C       -1.351752506     3.092571657     0.222343609
  21    C        1.112470092     2.956086138     0.040776904
  22    C        2.858712611     1.204049246     0.068669715
  23    C        3.031588782    -1.256514995     0.295899081
  24    C        1.399690459    -3.110844290     0.303896185
  25    C        0.200289586    -2.656376411    -0.387068006
  26    C       -2.652565054     0.129078862    -0.396599386
  27    C       -0.178510390     2.693920282    -0.445307841
  28    C        2.631071652    -0.098970961    -0.398685757
  29    H       -0.156764676    -4.925078226     2.746249590
  30    H       -4.493686736    -0.188079721     2.977200699
  31    H        0.160855024     4.796926414     2.766586133
  32    H        4.573939446     0.326803675     2.903923869
  33    H       -2.198714040    -4.063186139     1.627226136
  34    H       -3.173525219    -3.164239025    -0.575304566
  35    H       -3.726377844    -2.228159774     1.805813281
  36    H       -4.026895097     2.061838436     2.040171470
  37    H       -3.485532142     3.413279267    -0.001396030
  38    H       -2.097023549     4.203062760     1.925595758
  39    H        2.193559407     3.985105333     1.609926346
  40    H        3.134816717     3.218795081    -0.666953584
  41    H        3.797388573     2.330182489     1.665522618
  42    H        4.066930986    -1.951029213     2.069068499
  43    H        3.547159796    -3.347061236     0.056761259
  44    H        2.121941873    -4.293976276     1.958624246
  45    H       -2.163820595    -2.206186106    -1.643763098
  46    H       -2.728203261     2.661990573    -1.400553396
  47    H        2.137352293     2.232527290    -1.720000424
  48    H        2.740131171    -2.647487618    -1.342224294
  49    H       -2.652904894    -0.038215876    -2.376398845
  50    H       -1.132873392     2.312993416    -2.140839573
  51    H        2.502385325     0.167287705    -2.365596910
  52    H        1.326364910    -2.044443367    -1.900840899
  53    O        0.298647626    -1.992938534    -1.544929266
  54    O       -2.026168239     0.277390368    -1.658936563
  55    O       -0.263459150     2.023307719    -1.689060784
  56    O        1.968600325    -0.304868686    -1.644790817
  57   Cu       -0.038056534     0.034981845    -1.536872345


           Empirical Formula: C28 H24 O4 Cu  =    57 atoms



      MOLECULAR POINT GROUP   :   C1  


          ALPHA EIGENVALUES  
 -40.18486 -37.44889 -37.40344 -36.87222 -36.28133 -35.97185 -35.77317 -35.29093
 -35.17685 -34.10246 -33.74048 -33.02775 -32.23274 -32.09436 -31.39250 -31.05978
 -30.81389 -30.46763 -29.62362 -29.31656 -28.75387 -28.16413 -27.29148 -27.10515
 -27.03356 -26.61017 -26.08648 -25.92019 -25.52190 -25.24245 -24.72502 -24.61552
 -24.05710 -23.97405 -23.40424 -23.05238 -22.76926 -22.60677 -22.24948 -22.11009
 -22.04862 -21.91273 -21.87297 -21.73586 -21.42551 -21.31766 -21.04401 -20.92156
 -20.58327 -20.51889 -20.29363 -20.10811 -20.07855 -19.81423 -19.71197 -19.65733
 -19.51646 -19.43241 -19.37669 -19.17611 -19.06239 -18.80302 -18.57967 -18.46647
 -18.40517 -18.16446 -18.00455 -17.94818 -17.84442 -17.70106 -17.62489 -17.59632
 -17.47003 -17.34483 -17.31978 -17.15522 -16.98035 -16.87060 -16.17085 -15.51660
 -15.41039 -15.35651 -15.25251 -14.81288 -14.50096  -8.06162  -7.16074  -7.10667
  -5.92543  -5.78729  -5.76051  -5.63230  -5.25166  -5.12281  -5.09104  -5.08121
  -4.50838  -4.39077  -4.21942  -3.64299  -3.54294  -3.51815  -3.30195  -3.22412
  -3.05913  -2.86372  -2.80088  -2.74365  -2.67404  -2.53433  -2.45603  -2.42726
  -2.30149  -2.20737  -2.10935  -1.87440  -1.85589  -1.74635  -1.64632  -1.57317
  -1.52959  -1.39178  -1.33680  -1.29139  -1.19620  -1.12174  -1.10727  -1.05256
  -1.01078  -0.98573  -0.94648  -0.90135  -0.84782  -0.83384  -0.81952  -0.74590
  -0.70044  -0.58027  -0.45552  -0.44490  -0.33348  -0.27709  -0.18151  -0.17177
  -0.04402   0.05085   0.28579   0.30602   0.35623   0.52689   0.64077   0.67594
   0.68563   0.74248   0.79532   0.96167   1.10913   1.28111 117.89875 118.05553
 118.13498


           BETA EIGENVALUES 
 -39.50836 -37.40703 -37.24684 -36.85675 -36.29429 -35.95988 -35.76500 -35.26504
 -35.17586 -34.03066 -33.73370 -32.88469 -32.17347 -32.06712 -31.39029 -31.05262
 -30.79176 -30.44489 -29.61618 -29.31611 -28.62187 -28.07921 -27.27938 -27.08887
 -27.00747 -26.56958 -26.03686 -25.87862 -25.50656 -25.09874 -24.68578 -24.49262
 -24.02950 -23.86013 -23.02643 -22.94489 -22.70350 -22.55404 -22.22873 -22.05144
 -22.00581 -21.83950 -21.70923 -21.54162 -21.36706 -21.28228 -21.00565 -20.85852
 -20.55062 -20.42390 -20.27402 -20.09087 -20.00846 -19.79052 -19.65911 -19.51843
 -19.44680 -19.33596 -19.17177 -19.05008 -18.92223 -18.79664 -18.57059 -18.45490
 -18.39410 -18.11728 -17.98553 -17.93876 -17.82901 -17.68045 -17.58830 -17.53042
 -17.43676 -17.34115 -17.30432 -17.15411 -17.09286 -16.14871 -15.51277 -15.40109
 -15.35023 -15.24866 -14.81028 -14.50187  -9.83342  -7.00563  -6.78332  -6.75918
  -5.90539  -5.77285  -5.75151  -5.62768  -5.10464  -5.08979  -5.04473  -4.86022
  -4.45738  -4.30884  -4.14840  -3.63629  -3.50690  -3.45145  -3.24943  -3.18437
  -2.98573  -2.85204  -2.78241  -2.69942  -2.65242  -2.49388  -2.42377  -2.39294
  -2.28646  -2.17250  -2.09534  -1.87025  -1.85154  -1.73706  -1.63984  -1.57065
  -1.52474  -1.38483  -1.33237  -1.27988  -1.19700  -1.10988  -1.08345  -1.04756
  -1.00066  -0.98305  -0.94253  -0.88565  -0.86210  -0.84516  -0.81901  -0.74689
  -0.69984  -0.57873  -0.45529  -0.44027  -0.33319  -0.27836  -0.18126  -0.17137
  -0.04399   0.05084   0.28623   0.30589   0.35554   0.52714   0.64091   0.67565
   0.68542   0.74264   0.79577   0.96027   1.10696   1.28311 117.93709 118.01502
 118.24312


              NET ATOMIC CHARGES AND DIPOLE CONTRIBUTIONS

  ATOM NO.   TYPE          CHARGE      No. of ELECS.   s-Pop       p-Pop       d-Pop       
    1          C           0.068894        3.9311     1.14096     2.79015
    2          C          -0.098603        4.0986     1.11334     2.98527
    3          C          -0.129120        4.1291     1.11146     3.01766
    4          C          -0.098502        4.0985     1.11444     2.98406
    5          C          -0.209061        4.2091     1.12229     3.08677
    6          C          -0.143855        4.1439     1.10983     3.03402
    7          C          -0.130548        4.1305     1.11620     3.01435
    8          C          -0.107862        4.1079     1.11161     2.99626
    9          C          -0.125613        4.1256     1.11181     3.01380
   10          C          -0.123692        4.1237     1.11584     3.00785
   11          C          -0.131643        4.1316     1.11190     3.01974
   12          C          -0.152985        4.1530     1.12329     3.02970
   13          C          -0.310653        4.3107     1.08421     3.22644
   14          C          -0.277178        4.2772     1.08051     3.19667
   15          C          -0.282577        4.2826     1.08030     3.20228
   16          C          -0.296927        4.2969     1.08369     3.21323
   17          C           0.112346        3.8877     1.11575     2.77190
   18          C          -0.057997        4.0580     1.08882     2.96918
   19          C           0.017291        3.9827     1.09774     2.88497
   20          C          -0.072632        4.0726     1.09293     2.97970
   21          C          -0.030822        4.0308     1.08790     2.94292
   22          C          -0.003002        4.0030     1.09966     2.90334
   23          C          -0.044900        4.0449     1.08608     2.95882
   24          C           0.006738        3.9933     1.11424     2.87902
   25          C           0.237329        3.7627     1.14400     2.61867
   26          C           0.123565        3.8764     1.09420     2.78223
   27          C           0.151222        3.8488     1.09627     2.75250
   28          C           0.108188        3.8918     1.09633     2.79548
   29          H           0.199615        0.8004     0.80039
   30          H           0.183081        0.8169     0.81692
   31          H           0.180405        0.8196     0.81960
   32          H           0.186043        0.8140     0.81396
   33          H           0.217138        0.7829     0.78286
   34          H           0.210457        0.7895     0.78954
   35          H           0.167573        0.8324     0.83243
   36          H           0.184548        0.8155     0.81545
   37          H           0.193261        0.8067     0.80674
   38          H           0.173403        0.8266     0.82660
   39          H           0.170317        0.8297     0.82968
   40          H           0.194539        0.8055     0.80546
   41          H           0.183615        0.8164     0.81638
   42          H           0.175745        0.8243     0.82426
   43          H           0.214968        0.7850     0.78503
   44          H           0.214499        0.7855     0.78550
   45          H           0.176133        0.8239     0.82387
   46          H           0.153955        0.8460     0.84604
   47          H           0.160177        0.8398     0.83982
   48          H           0.162329        0.8377     0.83767
   49          H           0.350063        0.6499     0.64994
   50          H           0.350211        0.6498     0.64979
   51          H           0.366006        0.6340     0.63399
   52          H           0.385901        0.6141     0.61410
   53          O          -0.290048        6.2900     1.82041     4.46964
   54          O          -0.517995        6.5180     1.78141     4.73659
   55          O          -0.469102        6.4691     1.80010     4.66900
   56          O          -0.538892        6.5389     1.79220     4.74669
   57         Cu           0.664654       10.3353     0.42458     0.00107     9.90970
 DIPOLE           X         Y         Z       TOTAL
 POINT-CHG.     0.761    -8.669     2.764     9.130
 HYBRID        -0.019    -0.322    -2.867     2.885
 SUM            0.742    -8.991    -0.103     9.022


          ATOMIC ORBITAL ELECTRON POPULATIONS

     Atom    s        px        py        pz      x^2-y^2     xz        z^2       yz        xy
    1  C   1.14096   0.94089   0.87664   0.97261
    2  C   1.11334   0.97473   0.95677   1.05377
    3  C   1.11146   0.96051   1.00445   1.05270
    4  C   1.11444   0.97695   0.95599   1.05113
    5  C   1.12229   1.09830   0.99592   0.99254
    6  C   1.10983   0.98422   1.07088   0.97892
    7  C   1.11620   0.97339   1.05653   0.98442
    8  C   1.11161   1.05086   0.96691   0.97848
    9  C   1.11181   1.06876   0.97222   0.97282
   10  C   1.11584   0.96235   1.07674   0.96875
   11  C   1.11190   0.97885   1.05646   0.98444
   12  C   1.12329   1.06683   0.97309   0.98978
   13  C   1.08421   1.04453   1.08287   1.09904
   14  C   1.08051   1.04948   1.02759   1.11960
   15  C   1.08030   1.06627   1.04932   1.08669
   16  C   1.08369   1.03269   1.06346   1.11709
   17  C   1.11575   0.92298   0.90994   0.93898
   18  C   1.08882   1.04416   0.92577   0.99924
   19  C   1.09774   0.96533   0.94371   0.97593
   20  C   1.09293   0.94013   1.03260   1.00697
   21  C   1.08790   0.92739   1.01760   0.99794
   22  C   1.09966   0.97771   0.94020   0.98543
   23  C   1.08608   1.03912   0.91376   1.00594
   24  C   1.11424   0.95171   0.95547   0.97184
   25  C   1.14400   0.99162   0.80838   0.81866
   26  C   1.09420   1.01559   0.96578   0.80085
   27  C   1.09627   0.97149   0.97254   0.80847
   28  C   1.09633   1.01899   0.97470   0.80178
   29  H   0.80039
   30  H   0.81692
   31  H   0.81960
   32  H   0.81396
   33  H   0.78286
   34  H   0.78954
   35  H   0.83243
   36  H   0.81545
   37  H   0.80674
   38  H   0.82660
   39  H   0.82968
   40  H   0.80546
   41  H   0.81638
   42  H   0.82426
   43  H   0.78503
   44  H   0.78550
   45  H   0.82387
   46  H   0.84604
   47  H   0.83982
   48  H   0.83767
   49  H   0.64994
   50  H   0.64979
   51  H   0.63399
   52  H   0.61410
   53  O   1.82041   1.50736   1.56878   1.39349
   54  O   1.78141   1.52840   1.89338   1.31480
   55  O   1.80010   1.56872   1.66966   1.43062
   56  O   1.79220   1.59687   1.80794   1.34187
   57 Cu   0.42458   0.00053   0.00051   0.00004   1.94208   1.99772   1.97965   1.99752   1.99273


                    (SZ)    =    0.500000
                    (S**2)  =    0.843444


          ATOMIC ORBITAL SPIN POPULATIONS

    Atom   Total    s     px     py     pz   x^2-y^2  xz     z^2    yz     xy
         Atomic
    1  C  0.4437  0.012  0.020  0.258  0.154
    2  C  0.0054  0.000  0.003  0.000  0.001
    3  C  0.0135  0.000  0.001  0.008  0.004
    4  C -0.0018 -0.000 -0.001  0.000 -0.000
    5  C -0.2233 -0.009 -0.014 -0.127 -0.073
    6  C -0.0063 -0.000 -0.004 -0.000 -0.002
    7  C -0.0053 -0.000 -0.004 -0.000 -0.001
    8  C -0.0132 -0.000 -0.001 -0.008 -0.004
    9  C -0.0133 -0.000 -0.001 -0.008 -0.004
   10  C  0.0021  0.000  0.001  0.000  0.001
   11  C  0.0011  0.000  0.001  0.000  0.000
   12  C -0.1583 -0.007 -0.014 -0.088 -0.050
   13  C -0.0131 -0.002 -0.007 -0.003 -0.002
   14  C -0.0010 -0.000 -0.000 -0.000 -0.000
   15  C -0.0006 -0.000 -0.000 -0.000 -0.000
   16  C -0.0106 -0.001 -0.005 -0.002 -0.002
   17  C  0.2606  0.006  0.006  0.152  0.097
   18  C  0.0175  0.003  0.007  0.006  0.003
   19  C  0.0056  0.000  0.003  0.001  0.001
   20  C  0.0141  0.001  0.001  0.009  0.004
   21  C  0.0136  0.000  0.001  0.009  0.004
   22  C -0.0023 -0.000 -0.002  0.000 -0.001
   23  C  0.0072  0.001  0.000  0.005  0.000
   24  C  0.1802  0.004  0.003  0.111  0.062
   25  C  0.2493 -0.000  0.001  0.196  0.053
   26  C -0.0044 -0.000 -0.003 -0.000 -0.001
   27  C -0.0141 -0.000 -0.001 -0.010 -0.003
   28  C  0.0028 -0.000  0.003 -0.000 -0.000
   29  H -0.0145 -0.015
   30  H -0.0002 -0.000
   31  H -0.0005 -0.000
   32  H  0.0001  0.000
   33  H  0.0073  0.007
   34  H  0.0034  0.003
   35  H  0.0003  0.000
   36  H  0.0002  0.000
   37  H  0.0001  0.000
   38  H  0.0005  0.000
   39  H  0.0004  0.000
   40  H  0.0001  0.000
   41  H -0.0001 -0.000
   42  H  0.0001  0.000
   43  H  0.0012  0.001
   44  H  0.0051  0.005
   45  H  0.0022  0.002
   46  H  0.0002  0.000
   47  H  0.0001  0.000
   48  H  0.0027  0.003
   49  H  0.0013  0.001
   50  H -0.0002 -0.000
   51  H  0.0006  0.001
   52  H -0.0167 -0.017
   53  O  0.2296  0.007  0.020  0.151  0.051
   54  O  0.0050  0.002 -0.000  0.003  0.001
   55  O -0.0105 -0.002 -0.003 -0.003 -0.003
   56  O  0.0065  0.001 -0.000  0.004  0.001
   57 Cu  0.0268  0.003 -0.000  0.000 -0.000  0.020  0.000  0.002 -0.000  0.002

 **********************
 *                    *
 * JOB ENDED NORMALLY *
 *                    *
 **********************



 TOTAL JOB TIME:            44.17 SECONDS

 == MOPAC DONE ==
