 *******************************************************************************
 ** Site#: 1079         For non-commercial use only     Version 15.146L 64BITS**
 *******************************************************************************
 ** Cite this work as:                                                        **
 **                                                                           **
 ** (a) MOPAC2012, James J. P. Stewart, Stewart Computational Chemistry,      **
 **  Version 15.146L web: HTTP://OpenMOPAC.net         Days remaining: 156    **
 **                                                                           **
 **                                 AND                                       **
 **                                                                           **
 ** (b) Maia, J.D.C., et al., J. Chem. Theory Comput. 2012, 8, 3072-3081.     **
 **                DOI: 10.1021/ct3004645.                                    **
 *******************************************************************************
 **                                                                           **
 **                                MOPAC2012                                  **
 **                                                                           **
 *******************************************************************************

                            PM3 CALCULATION RESULTS


 *******************************************************************************
 *  CALCULATION DONE:                                Mon Dec 21 10:58:18 2015  *
 *  PM3        - The PM3 Hamiltonian to be used
 *  SINGLET    - SPIN STATE DEFINED AS A SINGLET
 *
 *
 *
 *                 CHARGE ON SYSTEM =     0
 *
 *
 *
 *  1SCF       - DO 1 SCF AND THEN STOP 
 *  T=         - A TIME OF 172800.0 SECONDS REQUESTED
 *  DUMP=N     - RESTART FILE WRITTEN EVERY  7200.000 SECONDS
 *  GRADIENTS- ALL GRADIENTS TO BE PRINTED
 *******************************************************************************
PM3 1SCF GRAD CHARGE=0 Singlet

 Mopac file generated by Gabedit
   ATOM   CHEMICAL          X               Y               Z
  NUMBER   SYMBOL      (ANGSTROMS)     (ANGSTROMS)     (ANGSTROMS)
 
     1       H          0.60068500  *  -0.43462200  *  -0.19137100  *
     2       H          0.13028700  *   0.94721000  *  -0.66807600  *
     3       O          0.56902800  *   0.48741300  *   0.03921300  *
 


          CARTESIAN COORDINATES 

    NO.       ATOM         X         Y         Z

     1         H        0.6007   -0.4346   -0.1914
     2         H        0.1303    0.9472   -0.6681
     3         O        0.5690    0.4874    0.0392

  H: (PM3): J. J. P. STEWART, J. COMP. CHEM. 10, 209 (1989).
  O: (PM3): J. J. P. STEWART, J. COMP. CHEM. 10, 209 (1989).

           Empirical Formula: H2 O  =     3 atoms



      MOLECULAR POINT GROUP   :   C2v 


 SINGLET STATE CALCULATION


      RHF CALCULATION, NO. OF DOUBLY OCCUPIED LEVELS =    4


 -------------------------------------------------------------------------------
PM3 1SCF GRAD CHARGE=0 Singlet

 Mopac file generated by Gabedit


     1SCF WAS SPECIFIED, SO BFGS WAS NOT USED                 
     SCF FIELD WAS ACHIEVED                                   


                              PM3 CALCULATION
                                                       MOPAC2012 (Version: 15.146L)
                                                       Mon Dec 21 10:58:18 2015
                                                       No. of days left = 156




          FINAL HEAT OF FORMATION =        -53.43283 KCAL/MOL =    -223.56296 KJ/MOL


          TOTAL ENERGY            =       -324.90736 EV
          ELECTRONIC ENERGY       =       -474.29966 EV  POINT GROUP:     C2v 
          CORE-CORE REPULSION     =        149.39230 EV
          COSMO AREA              =         42.47 SQUARE ANGSTROMS
          COSMO VOLUME            =         25.20 CUBIC ANGSTROMS

          GRADIENT NORM           =          0.17262
          IONIZATION POTENTIAL    =         12.316672 EV
          HOMO LUMO ENERGIES (EV) =        -12.317  4.061
          NO. OF FILLED LEVELS    =          4
          MOLECULAR WEIGHT        =         18.015

          MOLECULAR DIMENSIONS (Angstroms)

            Atom       Atom       Distance
            H     2    H     1     1.53557
            H     1    O     3     0.56102
            H     1    H     2     0.00000


          SCF CALCULATIONS        =          1
 
          WALL-CLOCK TIME         =          0.016 SECONDS
          COMPUTATION TIME        =          0.012 SECONDS



       FINAL  POINT  AND  DERIVATIVES

   PARAMETER     ATOM    TYPE            VALUE       GRADIENT
      1          1  H    CARTESIAN X     0.600685    -0.008845  KCAL/ANGSTROM
      2          1  H    CARTESIAN Y    -0.434622     0.020324  KCAL/ANGSTROM
      3          1  H    CARTESIAN Z    -0.191371     0.003735  KCAL/ANGSTROM
      4          2  H    CARTESIAN X     0.130287     0.054649  KCAL/ANGSTROM
      5          2  H    CARTESIAN Y     0.947210    -0.092225  KCAL/ANGSTROM
      6          2  H    CARTESIAN Z    -0.668076     0.070679  KCAL/ANGSTROM
      7          3  O    CARTESIAN X     0.569028    -0.045804  KCAL/ANGSTROM
      8          3  O    CARTESIAN Y     0.487413     0.071901  KCAL/ANGSTROM
      9          3  O    CARTESIAN Z     0.039213    -0.074414  KCAL/ANGSTROM




   ATOM   CHEMICAL          X               Y               Z
  NUMBER   SYMBOL      (ANGSTROMS)     (ANGSTROMS)     (ANGSTROMS)
 
     1       H          0.60068500  *  -0.43462200  *  -0.19137100  *
     2       H          0.13028700  *   0.94721000  *  -0.66807600  *
     3       O          0.56902800  *   0.48741300  *   0.03921300  *

                             CARTESIAN COORDINATES

   1    H        0.600685000    -0.434622000    -0.191371000
   2    H        0.130287000     0.947210000    -0.668076000
   3    O        0.569028000     0.487413000     0.039213000


           Empirical Formula: H2 O  =     3 atoms



      MOLECULAR POINT GROUP   :   C2v 


                  EIGENVALUES  
 -36.82661 -17.58086 -14.52365 -12.31667   4.06088   5.33169


              NET ATOMIC CHARGES AND DIPOLE CONTRIBUTIONS

  ATOM NO.   TYPE          CHARGE      No. of ELECS.   s-Pop       p-Pop       
    1          H           0.179268        0.8207     0.82073
    2          H           0.179273        0.8207     0.82073
    3          O          -0.358541        6.3585     1.76334     4.59520
 DIPOLE           X         Y         Z       TOTAL
 POINT-CHG.    -0.351    -0.398    -0.808     0.966
 HYBRID        -0.280    -0.318    -0.646     0.773
 SUM           -0.631    -0.716    -1.453     1.739


          ATOMIC ORBITAL ELECTRON POPULATIONS

     Atom    s        px        py        pz   
    1  H   0.82073
    2  H   0.82073
    3  O   1.76334   1.84608   1.23655   1.51257

          JOB ENDED NORMALLY



 TOTAL JOB TIME:             0.02 SECONDS

 == MOPAC DONE ==
