
                                 *****************
                                 * O   R   C   A *
                                 *****************

           --- An Ab Initio, DFT and Semiempirical electronic structure package ---

                  #######################################################
                  #                        -***-                        #
                  #  Department of molecular theory and spectroscopy    #
                  #              Directorship: Frank Neese              #
                  # Max Planck Institute for Chemical Energy Conversion #
                  #                  D-45470 Muelheim/Ruhr              #
                  #                       Germany                       #
                  #                                                     #
                  #                  All rights reserved                #
                  #                        -***-                        #
                  #######################################################


                         Program Version 3.0.2 -  RELEASE  -


 With contributions from (in alphabetic order):
   Ute Becker             : Parallelization
   Dmytro Bykov           : SCF Hessian
   Dmitry Ganyushin       : Spin-Orbit,Spin-Spin,Magnetic field MRCI
   Andreas Hansen         : Spin unrestricted coupled pair/coupled cluster methods
   Dimitrios Liakos       : Extrapolation schemes; parallel MDCI
   Robert Izsak           : Overlap fitted RIJCOSX, COSX-SCS-MP3
   Christian Kollmar      : KDIIS, OOCD, Brueckner-CCSD(T), CCSD density
   Simone Kossmann        : Meta GGA functionals, TD-DFT gradient, OOMP2, MP2 Hessian
   Taras Petrenko         : DFT Hessian,TD-DFT gradient, ASA and ECA modules, normal mode analysis, Resonance Raman, ABS, FL, XAS/XES, NRVS
   Christoph Reimann      : Effective Core Potentials
   Michael Roemelt        : Restricted open shell CIS
   Christoph Riplinger    : Improved optimizer, TS searches, QM/MM, DLPNO-CCSD
   Barbara Sandhoefer     : DKH picture change effects
   Igor Schapiro          : Molecular dynamics
   Kantharuban Sivalingam : CASSCF convergence, NEVPT2
   Boris Wezisla          : Elementary symmetry handling
   Frank Wennmohs         : Technical directorship


 We gratefully acknowledge several colleagues who have allowed us to
 interface, adapt or use parts of their codes:
   Stefan Grimme, W. Hujo, H. Kruse, T. Risthaus : VdW corrections, initial TS optimization,
                                                   DFT functionals, gCP
   Ed Valeev                                     : LibInt (2-el integral package), F12 methods
   Garnet Chan, S. Sharma, R. Olivares           : DMRG
   Ulf Ekstrom                                   : XCFun DFT Library
   Mihaly Kallay                                 : mrcc  (arbitrary order and MRCC methods)
   Andreas Klamt, Michael Diedenhofen            : otool_cosmo (COSMO solvation model)
   Frank Weinhold                                : gennbo (NPA and NBO analysis)
   Christopher J. Cramer and Donald G. Truhlar   : smd solvation model


 Your calculation uses the libint2 library for the computation of 2-el integrals
 For citations please refer to: http://libint.valeyev.net

 This ORCA versions uses:
   CBLAS   interface :  Fast vector & matrix operations
   LAPACKE interface :  Fast linear algebra routines
   SCALAPACK package :  Parallel linear algebra routines


Your calculation utilizes the basis: Ahlrichs-TZV
Cite in your paper:
H - Kr: A. Schaefer, H. Horn and R. Ahlrichs, J. Chem. Phys. 97, 2571 (1992).

The def2-TZV basis will be loaded
Cite in your paper:
 	F. Weigend, R. Ahlrichs, Phys. Chem. Chem. Phys. 2005, 7, 3297.

Your calculation utilizes empirical dispersion correction
Cite in your paper:
S.Grimme, S.Ehrlich, L.Goerigk, J Comput Chem, (2011), 32, 1456–1465 
S.Grimme, J.Antony, S.Ehrlich and H.Krieg, J.Chem.Phys., 132, (2010), 154104 
   

================================================================================
                                        WARNINGS
                       Please study these warnings very carefully!
================================================================================
Now building the actual basis set

WARNING: Geometry Optimization
  ===> : Switching off AutoStart
         For restart on a previous wavefunction, please use MOREAD


INFO   : the flag for use of LIBINT has been found!

================================================================================
                                       INPUT FILE
================================================================================
NAME = input.inp
|  1> ! RIJCOSX B3LYP/G D3BJ def2-tzvp def2-tzvp/JK def2-tzvp/C TIGHTSCF 
|  2> ! Opt  Freq
|  3> 
|  4> * xyz 0   1
|  5>   H      0.594398   -0.430112   -0.202093
|  6>   H      0.130350    0.936362   -0.671422
|  7>   O      0.575252    0.493751    0.053280
|  8> *
|  9> 
| 10>                          ****END OF INPUT****
================================================================================

                       *****************************
                       * Geometry Optimization Run *
                       *****************************

Geometry optimization settings:
Update method            Update   .... BFGS
Choice of coordinates    CoordSys .... Redundant Internals
Initial Hessian          InHess   .... Almoef's Model

Convergence Tolerances:
Energy Change            TolE     ....  5.0000e-06 Eh
Max. Gradient            TolMAXG  ....  3.0000e-04 Eh/bohr
RMS Gradient             TolRMSG  ....  1.0000e-04 Eh/bohr
Max. Displacement        TolMAXD  ....  4.0000e-03 bohr
RMS Displacement         TolRMSD  ....  2.0000e-03 bohr

------------------------------------------------------------------------------
                        ORCA OPTIMIZATION COORDINATE SETUP
------------------------------------------------------------------------------

The optimization will be done in new redundant internal coordinates
Making redundant internal coordinates   ...  (new redundants) done
Evaluating the initial hessian          ...  (Almloef) done
Evaluating the coordinates              ...  done
Calculating the B-matrix                .... done
Calculating the G-matrix                .... done
Diagonalizing the G-matrix              .... done
The first mode is                       ....    0
The number of degrees of freedom        ....    3

    -----------------------------------------------------------------
                    Redundant Internal Coordinates


    -----------------------------------------------------------------
         Definition                    Initial Value    Approx d2E/dq
    -----------------------------------------------------------------
      1. B(O   2,H   1)                  0.9587         0.522516   
      2. B(O   2,H   0)                  0.9587         0.522446   
      3. A(H   0,O   2,H   1)          104.6445         0.322345   
    -----------------------------------------------------------------

Number of atoms                         .... 3
Number of degrees of freedom            .... 3

         *************************************************************
         *                GEOMETRY OPTIMIZATION CYCLE   1            *
         *************************************************************
---------------------------------
CARTESIAN COORDINATES (ANGSTROEM)
---------------------------------
  H      0.594398   -0.430112   -0.202093
  H      0.130350    0.936362   -0.671422
  O      0.575252    0.493751    0.053280

----------------------------
CARTESIAN COORDINATES (A.U.)
----------------------------
  NO LB      ZA    FRAG    MASS        X           Y           Z
   0 H     1.0000    0     1.008          1.123249434550524         -0.812793886913137         -0.381900423582547
   1 H     1.0000    0     1.008          0.246325801556635          1.769467742210771         -1.268803700289675
   2 O     8.0000    0    15.999          1.087068737990468          0.933054168349752          0.100684608415324

--------------------------------
INTERNAL COORDINATES (ANGSTROEM)
--------------------------------
 H      0   0   0   0.000000     0.000     0.000
 H      1   0   0   1.517518     0.000     0.000
 O      2   1   0   0.958663    37.679     0.000

---------------------------
INTERNAL COORDINATES (A.U.)
---------------------------
 H      0   0   0   0.000000     0.000     0.000
 H      1   0   0   2.867694     0.000     0.000
 O      2   1   0   1.811611    37.679     0.000

---------------------
BASIS SET INFORMATION
---------------------
There are 2 groups of distinct atoms

 Group   1 Type H   : 5s1p contracted to 3s1p pattern {311/1}
 Group   2 Type O   : 11s6p2d1f contracted to 5s3p2d1f pattern {62111/411/11/1}

Atom   0H    basis set group =>   1
Atom   1H    basis set group =>   1
Atom   2O    basis set group =>   2
-------------------------------
AUXILIARY BASIS SET INFORMATION
-------------------------------
There are 2 groups of distinct atoms

 Group   1 Type H   : 4s2p2d contracted to 2s2p2d pattern {31/11/11}
 Group   2 Type O   : 14s10p6d2f1g contracted to 10s8p4d2f1g pattern {5111111111/31111111/3111/11/1}

Atom   0H    basis set group =>   1
Atom   1H    basis set group =>   1
Atom   2O    basis set group =>   2
------------------------------------------------------------------------------
                           ORCA GTO INTEGRAL CALCULATION
                           -- RI-GTO INTEGRALS CHOSEN --
------------------------------------------------------------------------------

                         BASIS SET STATISTICS AND STARTUP INFO

Gaussian basis set:
 # of primitive gaussian shells          ...   32
 # of primitive gaussian functions       ...   62
 # of contracted shells                  ...   19
 # of contracted basis functions         ...   43
 Highest angular momentum                ...    3
 Maximum contraction depth               ...    6
Auxiliary gaussian basis set:
 # of primitive gaussian shells          ...   49
 # of primitive gaussian functions       ...  137
 # of contracted shells                  ...   37
 # of contracted aux-basis functions     ...  113
 Highest angular momentum                ...    4
 Maximum contraction depth               ...    5
Ratio of auxiliary to basis functions    ...  2.63
Integral package used                  ... LIBINT
 One Electron integrals                  ... done
 Ordering auxiliary basis shells         ... done
 Integral threshhold             Thresh  ...  2.500e-11
 Primitive cut-off               TCut    ...  2.500e-12
 Pre-screening matrix                    ... done
 Shell pair data                         ... 
 Ordering of the shell pairs             ... done (   0.000 sec) 190 of 190 pairs
 Determination of significant pairs      ... done (   0.000 sec)
 Creation of shell pair data             ... done (   0.000 sec)
 Storage of shell pair data              ... done (   0.000 sec)
 Shell pair data done in (   0.000 sec)
 Computing two index integrals           ... done
 Cholesky decomposition of the V-matrix  ... done


Timings:
 Total evaluation time                   ...   0.165 sec (  0.003 min)
 One electron matrix time                ...   0.005 sec (  0.000 min) =  3.1%
 Schwartz matrix evaluation time         ...   0.105 sec (  0.002 min) = 63.4%
 Two index repulsion integral time       ...   0.000 sec (  0.000 min) =  0.3%
 Cholesky decomposition of V             ...   0.000 sec (  0.000 min) =  0.2%
 Three index repulsion integral time     ...   0.000 sec (  0.000 min) =  0.0%

-------------------------------------------------------------------------------
                                 ORCA SCF
-------------------------------------------------------------------------------

------------
SCF SETTINGS
------------
Hamiltonian:
 Density Functional     Method          .... DFT(GTOs)
 Exchange Functional    Exchange        .... B88
   X-Alpha parameter    XAlpha          ....  0.666667
   Becke's b parameter  XBeta           ....  0.004200
 Correlation Functional Correlation     .... LYP
 LDA part of GGA corr.  LDAOpt          .... VWN-3
 Gradients option       PostSCFGGA      .... off
 Hybrid DFT is turned on
   Fraction HF Exchange ScalHFX         ....  0.200000
   Scaling of DF-GGA-X  ScalDFX         ....  0.720000
   Scaling of DF-GGA-C  ScalDFC         ....  0.810000
   Scaling of DF-LDA-C  ScalLDAC        ....  1.000000
   Perturbative correction              ....  0.000000
   NL short-range parameter             ....  4.800000
 RI-approximation to the Coulomb term is turned on
   Number of auxiliary basis functions  .... 113
   RIJ-COSX (HFX calculated with COS-X)).... on


General Settings:
 Integral files         IntName         .... input
 Hartree-Fock type      HFTyp           .... RHF
 Total Charge           Charge          ....    0
 Multiplicity           Mult            ....    1
 Number of Electrons    NEL             ....   10
 Basis Dimension        Dim             ....   43
 Nuclear Repulsion      ENuc            ....      9.1804631801 Eh

Convergence Acceleration:
 DIIS                   CNVDIIS         .... on
   Start iteration      DIISMaxIt       ....    12
   Startup error        DIISStart       ....  0.200000
   # of expansion vecs  DIISMaxEq       ....     5
   Bias factor          DIISBfac        ....   1.050
   Max. coefficient     DIISMaxC        ....  10.000
 Newton-Raphson         CNVNR           .... off
 SOSCF                  CNVSOSCF        .... on
   Start iteration      SOSCFMaxIt      ....   150
   Startup grad/error   SOSCFStart      ....  0.003300
 Level Shifting         CNVShift        .... on
   Level shift para.    LevelShift      ....    0.2500
   Turn off err/grad.   ShiftErr        ....    0.0010
 Zerner damping         CNVZerner       .... off
 Static damping         CNVDamp         .... on
   Fraction old density DampFac         ....    0.7000
   Max. Damping (<1)    DampMax         ....    0.9800
   Min. Damping (>=0)   DampMin         ....    0.0000
   Turn off err/grad.   DampErr         ....    0.1000
 Fernandez-Rico         CNVRico         .... off

SCF Procedure:
 Maximum # iterations   MaxIter         ....   125
 SCF integral mode      SCFMode         .... Direct
   Integral package                     .... LIBINT
 Reset frequeny         DirectResetFreq ....    20
 Integral Threshold     Thresh          ....  2.500e-11 Eh
 Primitive CutOff       TCut            ....  2.500e-12 Eh

Convergence Tolerance:
 Convergence Check Mode ConvCheckMode   .... Total+1el-Energy
 Energy Change          TolE            ....  1.000e-08 Eh
 1-El. energy change                    ....  1.000e-05 Eh
 Orbital Gradient       TolG            ....  1.000e-05
 Orbital Rotation angle TolX            ....  1.000e-05
 DIIS Error             TolErr          ....  5.000e-07


Diagonalization of the overlap matrix:
Smallest eigenvalue                        ... 8.352e-03
Time for diagonalization                   ...    0.001 sec
Threshold for overlap eigenvalues          ... 1.000e-08
Number of eigenvalues below threshold      ... 0
Time for construction of square roots      ...    0.000 sec
Total time needed                          ...    0.001 sec

-------------------
DFT GRID GENERATION
-------------------

General Integration Accuracy     IntAcc      ...  4.340
Radial Grid Type                 RadialGrid  ... Gauss-Chebyshev
Angular Grid (max. acc.)         AngularGrid ... Lebedev-110
Angular grid pruning method      GridPruning ... 3 (G Style)
Weight generation scheme         WeightScheme... Becke
Basis function cutoff            BFCut       ...    1.0000e-11
Integration weight cutoff        WCut        ...    1.0000e-14
Grids for H and He will be reduced by one unit

# of grid points (after initial pruning)     ...   3304 (   0.0 sec)
# of grid points (after weights+screening)   ...   3290 (   0.0 sec)
nearest neighbour list constructed           ...    0.0 sec
Grid point re-assignment to atoms done       ...    0.0 sec
Grid point division into batches done        ...    0.0 sec
Reduced shell lists constructed in    0.0 sec

Total number of grid points                  ...     3290
Total number of batches                      ...       53
Average number of points per batch           ...       62
Average number of grid points per atom       ...     1097
Average number of shells per batch           ...    17.35 (91.33%)
Average number of basis functions per batch  ...    40.13 (93.32%)
Average number of large shells per batch     ...    16.43 (94.66%)
Average number of large basis fcns per batch ...    38.06 (94.83%)
Maximum spatial batch extension              ...  17.56, 16.41, 21.59 au
Average spatial batch extension              ...   5.69,  5.18,  5.80 au

Time for grid setup =    0.018 sec

------------------------------
INITIAL GUESS: MODEL POTENTIAL
------------------------------
Loading Hartree-Fock densities                     ... done
Calculating cut-offs                               ... done
Setting up the integral package                    ... done
Initializing the effective Hamiltonian             ... done
Starting the Coulomb interaction                   ... done (   0.0 sec)
Reading the grid                                   ... done
Mapping shells                                     ... done
Starting the XC term evaluation                    ... done (   0.0 sec)
  promolecular density results
     # of electrons  =     10.000918553
     EX              =     -8.783163413
     EC              =     -0.334591974
     EX+EC           =     -9.117755387
Transforming the Hamiltonian                       ... done (   0.0 sec)
Diagonalizing the Hamiltonian                      ... done (   0.0 sec)
Back transforming the eigenvectors                 ... done (   0.0 sec)
Now organizing SCF variables                       ... done
                      ------------------
                      INITIAL GUESS DONE (   0.2 sec)
                      ------------------
--------------------
COSX GRID GENERATION
--------------------

General Integration Accuracy     IntAcc      ...  3.340
Radial Grid Type                 RadialGrid  ... Gauss-Chebyshev
Angular Grid (max. acc.)         AngularGrid ... Lebedev-50
Angular grid pruning method      GridPruning ... 3 (G Style)
Weight generation scheme         WeightScheme... Becke
Basis function cutoff            BFCut       ...    1.0000e-11
Integration weight cutoff        WCut        ...    1.0000e-14
Grids for H and He will be reduced by one unit

# of grid points (after initial pruning)     ...   1220 (   0.0 sec)
# of grid points (after weights+screening)   ...   1214 (   0.0 sec)
nearest neighbour list constructed           ...    0.0 sec
Grid point re-assignment to atoms done       ...    0.0 sec
Grid point division into batches done        ...    0.0 sec
Reduced shell lists constructed in    0.0 sec

Total number of grid points                  ...     1214
Total number of batches                      ...       20
Average number of points per batch           ...       60
Average number of grid points per atom       ...      405
Average number of shells per batch           ...    17.38 (91.48%)
Average number of basis functions per batch  ...    40.24 (93.58%)
Average number of large shells per batch     ...    17.19 (98.90%)
Average number of large basis fcns per batch ...    40.05 (99.53%)
Maximum spatial batch extension              ...  18.43, 13.89, 17.98 au
Average spatial batch extension              ...   8.24,  7.04,  8.28 au

Overlap Fitting                  UseSFitting ... on
Constructing numerical overlap ... done (      0.0 sec)
Inverting numerical overlap    ... done (      0.0 sec)
Obtaining analytic overlap     ... done (      0.0 sec)
Final contraction and storage  ... done (      0.0 sec)


General Integration Accuracy     IntAcc      ...  3.670
Radial Grid Type                 RadialGrid  ... Gauss-Chebyshev
Angular Grid (max. acc.)         AngularGrid ... Lebedev-50
Angular grid pruning method      GridPruning ... 3 (G Style)
Weight generation scheme         WeightScheme... Becke
Basis function cutoff            BFCut       ...    1.0000e-11
Integration weight cutoff        WCut        ...    1.0000e-14
Grids for H and He will be reduced by one unit

# of grid points (after initial pruning)     ...   1602 (   0.0 sec)
# of grid points (after weights+screening)   ...   1594 (   0.0 sec)
nearest neighbour list constructed           ...    0.0 sec
Grid point re-assignment to atoms done       ...    0.0 sec
Grid point division into batches done        ...    0.0 sec
Reduced shell lists constructed in    0.0 sec

Total number of grid points                  ...     1594
Total number of batches                      ...       26
Average number of points per batch           ...       61
Average number of grid points per atom       ...      531
Average number of shells per batch           ...    17.41 (91.62%)
Average number of basis functions per batch  ...    40.52 (94.23%)
Average number of large shells per batch     ...    17.07 (98.09%)
Average number of large basis fcns per batch ...    39.96 (98.63%)
Maximum spatial batch extension              ...  18.42, 15.20, 20.06 au
Average spatial batch extension              ...   7.94,  6.58,  7.90 au

Overlap Fitting                  UseSFitting ... on
Constructing numerical overlap ... done (      0.0 sec)
Inverting numerical overlap    ... done (      0.0 sec)
Obtaining analytic overlap     ... done (      0.0 sec)
Final contraction and storage  ... done (      0.0 sec)


General Integration Accuracy     IntAcc      ...  4.010
Radial Grid Type                 RadialGrid  ... Gauss-Chebyshev
Angular Grid (max. acc.)         AngularGrid ... Lebedev-110
Angular grid pruning method      GridPruning ... 3 (G Style)
Weight generation scheme         WeightScheme... Becke
Basis function cutoff            BFCut       ...    1.0000e-11
Integration weight cutoff        WCut        ...    1.0000e-14
Grids for H and He will be reduced by one unit

# of grid points (after initial pruning)     ...   2758 (   0.0 sec)
# of grid points (after weights+screening)   ...   2747 (   0.0 sec)
nearest neighbour list constructed           ...    0.0 sec
Grid point re-assignment to atoms done       ...    0.0 sec
Grid point division into batches done        ...    0.0 sec
Reduced shell lists constructed in    0.0 sec

Total number of grid points                  ...     2747
Total number of batches                      ...       44
Average number of points per batch           ...       62
Average number of grid points per atom       ...      916
Average number of shells per batch           ...    17.38 (91.46%)
Average number of basis functions per batch  ...    40.36 (93.85%)
Average number of large shells per batch     ...    16.73 (96.29%)
Average number of large basis fcns per batch ...    38.78 (96.09%)
Maximum spatial batch extension              ...  17.95, 16.09, 20.15 au
Average spatial batch extension              ...   6.13,  5.63,  5.82 au

Overlap Fitting                  UseSFitting ... on
Constructing numerical overlap ... done (      0.0 sec)
Inverting numerical overlap    ... done (      0.0 sec)
Obtaining analytic overlap     ... done (      0.0 sec)
Final contraction and storage  ... done (      0.0 sec)

Time for X-Grid setup             =    0.192 sec
--------------
SCF ITERATIONS
--------------
ITER       Energy         Delta-E        Max-DP      RMS-DP      [F,P]     Damp
               ***  Starting incremental Fock matrix formation  ***
  0    -76.3584558207   0.000000000000 0.05434040  0.00402386  0.3446465 0.7000
  1    -76.4110517653  -0.052595944601 0.03003182  0.00234195  0.1341804 0.7000
                               ***Turning on DIIS***
  2    -76.4271528339  -0.016101068586 0.02797722  0.00250796  0.0250907 0.0000
  3    -76.4574195504  -0.030266716499 0.02081503  0.00143305  0.0806745 0.0000
  4    -76.4626688343  -0.005249283940 0.00430343  0.00033255  0.0115122 0.0000
                      *** Initiating the SOSCF procedure ***
                           *** Shutting down DIIS ***
                      *** Re-Reading the Fockian *** 
                      *** Removing any level shift *** 
ITER      Energy       Delta-E        Grad      Rot      Max-DP    RMS-DP
  5    -76.46281116  -0.0001423244  0.000577  0.000577  0.000944  0.000076
               *** Restarting incremental Fock matrix formation ***
  6    -76.46281414  -0.0000029817  0.000237  0.000584  0.000606  0.000041
  7    -76.46281450  -0.0000003595  0.000104  0.000125  0.000117  0.000013
  8    -76.46281451  -0.0000000126  0.000098  0.000097  0.000090  0.000008
  9    -76.46281455  -0.0000000416  0.000003  0.000002  0.000003  0.000000
                 **** Energy Check signals convergence ****
              ***Rediagonalizing the Fockian in SOSCF/NRSCF***

               *****************************************************
               *                     SUCCESS                       *
               *           SCF CONVERGED AFTER  10 CYCLES          *
               *****************************************************

Setting up the final grid:

General Integration Accuracy     IntAcc      ...  4.670
Radial Grid Type                 RadialGrid  ... Gauss-Chebyshev
Angular Grid (max. acc.)         AngularGrid ... Lebedev-302
Angular grid pruning method      GridPruning ... 3 (G Style)
Weight generation scheme         WeightScheme... Becke
Basis function cutoff            BFCut       ...    1.0000e-11
Integration weight cutoff        WCut        ...    1.0000e-14
Grids for H and He will be reduced by one unit

# of grid points (after initial pruning)     ...  13000 (   0.0 sec)
# of grid points (after weights+screening)   ...  12883 (   0.0 sec)
nearest neighbour list constructed           ...    0.0 sec
Grid point re-assignment to atoms done       ...    0.0 sec
Grid point division into batches done        ...    0.1 sec
Reduced shell lists constructed in    0.1 sec

Total number of grid points                  ...    12883
Total number of batches                      ...      203
Average number of points per batch           ...       63
Average number of grid points per atom       ...     4294
Average number of shells per batch           ...    15.79 (83.10%)
Average number of basis functions per batch  ...    35.94 (83.57%)
Average number of large shells per batch     ...    14.80 (93.73%)
Average number of large basis fcns per batch ...    33.78 (94.00%)
Maximum spatial batch extension              ...  25.49, 15.70, 18.23 au
Average spatial batch extension              ...   3.66,  3.33,  3.59 au

Final grid set up in    0.1 sec
Final integration                            ... done (   0.1 sec)
Change in XC energy                          ...    -0.000238598
Integrated number of electrons               ...    10.000003822
Previous integrated no of electrons          ...    10.000510850
Old exchange energy                            =     -1.786808577 Eh
New exchange energy                            =     -1.786728278 Eh
Exchange energy change after final integration =      0.000080299 Eh
Total energy after final integration           =    -76.462972853 Eh
Final COS-X integration done in                =     0.240 sec

----------------
TOTAL SCF ENERGY
----------------

Total Energy       :          -76.46297285 Eh           -2080.66327 eV

Components:
Nuclear Repulsion  :            9.18046318 Eh             249.81310 eV
Electronic Energy  :          -85.64343603 Eh           -2330.47637 eV

One Electron Energy:         -123.08293595 Eh           -3349.25696 eV
Two Electron Energy:           37.43949992 Eh            1018.78059 eV

Virial components:
Potential Energy   :         -152.64509581 Eh           -4153.68423 eV
Kinetic Energy     :           76.18212296 Eh            2073.02096 eV
Virial Ratio       :            2.00368656


DFT components:
N(Alpha)           :        5.000001910871 electrons
N(Beta)            :        5.000001910871 electrons
N(Total)           :       10.000003821742 electrons
E(X)               :       -7.118975503672 Eh       
E(C)               :       -0.439022005836 Eh       
E(XC)              :       -7.557997509508 Eh       

---------------
SCF CONVERGENCE
---------------

  Last Energy change         ...   -5.5948e-11  Tolerance :   1.0000e-08
  Last MAX-Density change    ...    5.5511e-16  Tolerance :   1.0000e-07
  Last RMS-Density change    ...    2.1080e-17  Tolerance :   5.0000e-09
  Last Orbital Gradient      ...    1.0841e-06  Tolerance :   1.0000e-05
  Last Orbital Rotation      ...    5.5487e-07  Tolerance :   1.0000e-05

             **** THE GBW FILE WAS UPDATED (input.gbw) ****
             **** DENSITY FILE WAS UPDATED (input.scfp.tmp) ****
             **** ENERGY FILE WAS UPDATED (input.en.tmp) ****
----------------
ORBITAL ENERGIES
----------------

  NO   OCC          E(Eh)            E(eV) 
   0   2.0000     -19.127179      -520.4770 
   1   2.0000      -1.016378       -27.6571 
   2   2.0000      -0.536036       -14.5863 
   3   2.0000      -0.392046       -10.6681 
   4   2.0000      -0.316905        -8.6234 
   5   0.0000       0.013577         0.3695 
   6   0.0000       0.090496         2.4625 
   7   0.0000       0.355594         9.6762 
   8   0.0000       0.403463        10.9788 
   9   0.0000       0.423924        11.5356 
  10   0.0000       0.435939        11.8625 
  11   0.0000       0.567585        15.4448 
  12   0.0000       0.595123        16.1941 
  13   0.0000       1.160916        31.5901 
  14   0.0000       1.187172        32.3046 
  15   0.0000       1.293592        35.2004 
  16   0.0000       1.516169        41.2571 
  17   0.0000       1.628180        44.3050 
  18   0.0000       1.751209        47.6528 
  19   0.0000       1.971137        53.6374 
  20   0.0000       2.054363        55.9020 
  21   0.0000       2.100735        57.1639 
  22   0.0000       2.275970        61.9323 
  23   0.0000       2.373093        64.5751 
  24   0.0000       2.577510        70.1376 
  25   0.0000       2.604355        70.8681 
  26   0.0000       2.606517        70.9269 
  27   0.0000       2.769530        75.3627 
  28   0.0000       3.634656        98.9040 
  29   0.0000       3.922945       106.7487 
  30   0.0000       5.093415       138.5989 
  31   0.0000       5.197803       141.4394 
  32   0.0000       5.374815       146.2561 
  33   0.0000       5.399386       146.9248 
  34   0.0000       5.458733       148.5397 
  35   0.0000       6.032764       164.1599 
  36   0.0000       6.210229       168.9889 
  37   0.0000       6.296701       171.3419 
  38   0.0000       6.360952       173.0903 
  39   0.0000       6.414064       174.5356 
  40   0.0000       6.902780       187.8342 
  41   0.0000       6.984731       190.0642 
  42   0.0000      43.217499      1176.0079 

                    ********************************
                    * MULLIKEN POPULATION ANALYSIS *
                    ********************************

-----------------------
MULLIKEN ATOMIC CHARGES
-----------------------
   0 H :    0.316392
   1 H :    0.316389
   2 O :   -0.632781
Sum of atomic charges:    0.0000000

--------------------------------
MULLIKEN REDUCED ORBITAL CHARGES
--------------------------------
  0 H s       :     0.635103  s :     0.635103
      pz      :     0.013510  p :     0.048505
      px      :     0.015850
      py      :     0.019145
  1 H s       :     0.635272  s :     0.635272
      pz      :     0.017622  p :     0.048340
      px      :     0.017703
      py      :     0.013015
  2 O s       :     3.806863  s :     3.806863
      pz      :     1.628664  p :     4.803793
      px      :     1.847498
      py      :     1.327631
      dz2     :     0.004441  d :     0.020784
      dxz     :     0.005309
      dyz     :     0.005719
      dx2y2   :     0.004376
      dxy     :     0.000939
      f0      :     0.000045  f :     0.001342
      f+1     :     0.000233
      f-1     :     0.000147
      f+2     :     0.000154
      f-2     :     0.000250
      f+3     :     0.000107
      f-3     :     0.000405


                     *******************************
                     * LOEWDIN POPULATION ANALYSIS *
                     *******************************

----------------------
LOEWDIN ATOMIC CHARGES
----------------------
   0 H :    0.153444
   1 H :    0.153539
   2 O :   -0.306983

-------------------------------
LOEWDIN REDUCED ORBITAL CHARGES
-------------------------------
  0 H s       :     0.685083  s :     0.685083
      pz      :     0.041151  p :     0.161473
      px      :     0.044000
      py      :     0.076321
  1 H s       :     0.685004  s :     0.685004
      pz      :     0.068737  p :     0.161457
      px      :     0.055873
      py      :     0.036847
  2 O s       :     3.458975  s :     3.458975
      pz      :     1.644236  p :     4.812876
      px      :     1.808199
      py      :     1.360441
      dz2     :     0.005610  d :     0.032570
      dxz     :     0.006689
      dyz     :     0.009888
      dx2y2   :     0.008805
      dxy     :     0.001578
      f0      :     0.000156  f :     0.002561
      f+1     :     0.000399
      f-1     :     0.000442
      f+2     :     0.000310
      f-2     :     0.000531
      f+3     :     0.000047
      f-3     :     0.000677


                      *****************************
                      * MAYER POPULATION ANALYSIS *
                      *****************************

  NA   - Mulliken gross atomic population
  ZA   - Total nuclear charge
  QA   - Mulliken gross atomic charge
  VA   - Mayer's total valence
  BVA  - Mayer's bonded valence
  FA   - Mayer's free valence

  ATOM       NA         ZA         QA         VA         BVA        FA
  0 H      0.6836     1.0000     0.3164     0.9162     0.9162    -0.0000
  1 H      0.6836     1.0000     0.3164     0.9160     0.9160     0.0000
  2 O      8.6328     8.0000    -0.6328     1.8218     1.8218     0.0000

  Mayer bond orders larger than 0.1
B(  0-H ,  2-O ) :   0.9110 B(  1-H ,  2-O ) :   0.9108 

-------
TIMINGS
-------

Total SCF time: 0 days 0 hours 0 min 4 sec 

Total time                  ....       4.085 sec
Sum of individual times     ....       3.904 sec  ( 95.6%)

Fock matrix formation       ....       3.408 sec  ( 83.4%)
  Coulomb formation         ....       3.051 sec  ( 89.5% of F)
  Split-RI-J                ....       1.404 sec  ( 41.2% of F)
  Chain of spheres X        ....       1.880 sec  ( 55.2% of F)
  COS-X 1 center corr.      ....       0.000 sec  (  0.0% of F)
  XC integration            ....       0.355 sec  ( 10.4% of F)
    Basis function eval.    ....       0.131 sec  ( 37.1% of XC)
    Density eval.           ....       0.054 sec  ( 15.3% of XC)
    XC-Functional eval.     ....       0.077 sec  ( 21.7% of XC)
    XC-Potential eval.      ....       0.079 sec  ( 22.2% of XC)
Diagonalization             ....       0.004 sec  (  0.1%)
Density matrix formation    ....       0.000 sec  (  0.0%)
Population analysis         ....       0.001 sec  (  0.0%)
Initial guess               ....       0.171 sec  (  4.2%)
Orbital Transformation      ....       0.000 sec  (  0.0%)
Orbital Orthonormalization  ....       0.000 sec  (  0.0%)
DIIS solution               ....       0.001 sec  (  0.0%)
SOSCF solution              ....       0.003 sec  (  0.1%)
Grid generation             ....       0.315 sec  (  7.7%)


-------------------------------------------------------------------------------
                          DFT DISPERSION CORRECTION                            
                                                                               
                                DFTD3 V2.1  Rev 6                               
                          USING Becke-Johnson damping                          
-------------------------------------------------------------------------------
Gaussians B3LYP functional is recognized, using normal B3LYP params
Active option DFTDOPT                   ...         4   

molecular C6(AA) [au] = 44.531103 


            DFT-D V3
 parameters
 s6 scaling factor         :     1.0000 
 a1 scaling factor         :     0.3981 
 s8 scaling factor         :     1.9889 
 a2 scaling factor         :     4.4211 
 ad hoc parameters k1-k3   :    16.0000     1.3333    -4.0000 

 Edisp/kcal,au: -0.360106275795  -0.000573865818 
 E6   /kcal   :  -0.196931262 
 E8   /kcal   :  -0.163175014 
 % E8         :  45.313015842 

-------------------------   ----------------
Dispersion correction           -0.000573866
-------------------------   ----------------


-------------------------   --------------------
FINAL SINGLE POINT ENERGY       -76.463546719275
-------------------------   --------------------

------------------------------------------------------------------------------
                         ORCA SCF GRADIENT CALCULATION
------------------------------------------------------------------------------

Gradient of the Kohn-Sham DFT energy:
Kohn-Sham wavefunction type      ... RKS
Hartree-Fock exchange scaling    ...    0.200
Number of operators              ...    1
Number of atoms                  ...    3
Basis set dimensions             ...   43
Integral neglect threshold       ... 2.5e-11
Integral primitive cutoff        ... 2.5e-12

Nuclear repulsion gradient       ... done
One Electron Gradient            ... done
Pre-screening matrix             ... done
RI-J gradient                    ... done
COSX-gradient                    ... done
Exchange-correlation gradient    ... done
Dispersion correction            ... done

------------------
CARTESIAN GRADIENT
------------------

   1   H   :   -0.000548664    0.004572310    0.000196875
   2   H   :    0.001834151   -0.003095202    0.002526789
   3   O   :   -0.000818407   -0.002489366   -0.002375788

Norm of the cartesian gradient     ...    0.007286012
RMS gradient                       ...    0.002428671
MAX gradient                       ...    0.004572310

-------
TIMINGS
-------

Total SCF gradient time            ...        1.007 sec

One electron gradient       ....       0.005 sec  (  0.5%)
Prescreening matrices       ....       0.029 sec  (  2.8%)
RI-J Coulomb gradient       ....       0.133 sec  ( 13.2%)
COSX gradient               ....       0.246 sec  ( 24.4%)
XC gradient                 ....       0.264 sec  ( 26.2%)
------------------------------------------------------------------------------
                         ORCA GEOMETRY RELAXATION STEP
------------------------------------------------------------------------------

Reading the OPT-File                    .... done
Getting information on internals        .... done
Copying old internal coords+grads       .... done
Making the new internal coordinates     .... (new redundants).... done
Validating the new internal coordinates .... (new redundants).... done
Calculating the B-matrix                .... done
Calculating the G,G- and P matrices     .... done
Transforming gradient to internals      .... done
Projecting the internal gradient        .... done
Number of atoms                         ....   3
Number of internal coordinates          ....   3
Current Energy                          ....   -76.463546719 Eh
Current gradient norm                   ....     0.007286012 Eh/bohr
Maximum allowed component of the step   ....  0.300
Current trust radius                    ....  0.300
Evaluating the initial hessian          ....  (Almloef) done
Projecting the Hessian                  .... done
Forming the augmented Hessian           .... done
Diagonalizing the augmented Hessian     .... done
Last element of RFO vector              ....  0.999906503
Lowest eigenvalues of augmented Hessian:
 -0.000088038  0.322360537  0.522473119
Length of the computed step             ....  0.013675569
The final length of the internal step   ....  0.013675569
Converting the step to cartesian space:
 Initial RMS(Int)=    0.0078955932
Transforming coordinates:
 Iter   0:  RMS(Cart)=    0.0049106038 RMS(Int)=    0.0078940225
 Iter   1:  RMS(Cart)=    0.0000091009 RMS(Int)=    0.0000204133
 Iter   2:  RMS(Cart)=    0.0000000382 RMS(Int)=    0.0000001008
done
Storing new coordinates                 .... done

                                .--------------------.
          ----------------------|Geometry convergence|---------------------
          Item                value                 Tolerance   Converged
          -----------------------------------------------------------------
          RMS gradient        0.00378067            0.00010000      NO
          MAX gradient        0.00482422            0.00030000      NO
          RMS step            0.00789559            0.00200000      NO
          MAX step            0.00923235            0.00400000      NO
          ....................................................
          Max(Bonds)      0.0049      Max(Angles)    0.40
          Max(Dihed)        0.00      Max(Improp)    0.00
          -----------------------------------------------------------------

The optimization has not yet converged - more geometry cycles are needed


    ---------------------------------------------------------------------------
                         Redundant Internal Coordinates
                            (Angstroem and degrees)

        Definition                    Value    dE/dq     Step     New-Value
    ----------------------------------------------------------------------------
     1. B(O   2,H   1)                0.9587 -0.003817  0.0039    0.9625   
     2. B(O   2,H   0)                0.9587 -0.004824  0.0049    0.9636   
     3. A(H   0,O   2,H   1)          104.64 -0.002244    0.40    105.04   
    ----------------------------------------------------------------------------

         *************************************************************
         *                GEOMETRY OPTIMIZATION CYCLE   2            *
         *************************************************************
---------------------------------
CARTESIAN COORDINATES (ANGSTROEM)
---------------------------------
  H      0.596084   -0.435291   -0.200455
  H      0.128769    0.941214   -0.672959
  O      0.575147    0.494078    0.053180

----------------------------
CARTESIAN COORDINATES (A.U.)
----------------------------
  NO LB      ZA    FRAG    MASS        X           Y           Z
   0 H     1.0000    0     1.008          1.126435824601975         -0.822580629007591         -0.378805668288641
   1 H     1.0000    0     1.008          0.243337702219206          1.778636000712199         -1.271708860065461
   2 O     8.0000    0    15.999          1.086870447276445          0.933672651942778          0.100495012897204

--------------------------------
INTERNAL COORDINATES (ANGSTROEM)
--------------------------------
 H      0   0   0   0.000000     0.000     0.000
 H      1   0   0   1.528531     0.000     0.000
 O      2   1   0   0.962529    37.502     0.000

---------------------------
INTERNAL COORDINATES (A.U.)
---------------------------
 H      0   0   0   0.000000     0.000     0.000
 H      1   0   0   2.888506     0.000     0.000
 O      2   1   0   1.818916    37.502     0.000

 One Electron integrals                  ... done
 Pre-screening matrix                    ... done

Diagonalization of the overlap matrix:
Smallest eigenvalue                        ... 8.515e-03
Time for diagonalization                   ...    0.001 sec
Threshold for overlap eigenvalues          ... 1.000e-08
Number of eigenvalues below threshold      ... 0
Time for construction of square roots      ...    0.001 sec
Total time needed                          ...    0.002 sec

-------------------
DFT GRID GENERATION
-------------------

General Integration Accuracy     IntAcc      ...  4.340
Radial Grid Type                 RadialGrid  ... Gauss-Chebyshev
Angular Grid (max. acc.)         AngularGrid ... Lebedev-110
Angular grid pruning method      GridPruning ... 3 (G Style)
Weight generation scheme         WeightScheme... Becke
Basis function cutoff            BFCut       ...    1.0000e-11
Integration weight cutoff        WCut        ...    1.0000e-14
Grids for H and He will be reduced by one unit

# of grid points (after initial pruning)     ...   3304 (   0.0 sec)
# of grid points (after weights+screening)   ...   3290 (   0.0 sec)
nearest neighbour list constructed           ...    0.0 sec
Grid point re-assignment to atoms done       ...    0.0 sec
Grid point division into batches done        ...    0.0 sec
Reduced shell lists constructed in    0.0 sec

Total number of grid points                  ...     3290
Total number of batches                      ...       53
Average number of points per batch           ...       62
Average number of grid points per atom       ...     1097
Average number of shells per batch           ...    17.33 (91.23%)
Average number of basis functions per batch  ...    40.11 (93.28%)
Average number of large shells per batch     ...    16.39 (94.55%)
Average number of large basis fcns per batch ...    37.98 (94.69%)
Maximum spatial batch extension              ...  17.56, 16.41, 21.59 au
Average spatial batch extension              ...   5.71,  5.11,  5.80 au

Time for grid setup =    0.028 sec

--------------------
COSX GRID GENERATION
--------------------

General Integration Accuracy     IntAcc      ...  3.340
Radial Grid Type                 RadialGrid  ... Gauss-Chebyshev
Angular Grid (max. acc.)         AngularGrid ... Lebedev-50
Angular grid pruning method      GridPruning ... 3 (G Style)
Weight generation scheme         WeightScheme... Becke
Basis function cutoff            BFCut       ...    1.0000e-11
Integration weight cutoff        WCut        ...    1.0000e-14
Grids for H and He will be reduced by one unit

# of grid points (after initial pruning)     ...   1220 (   0.0 sec)
# of grid points (after weights+screening)   ...   1214 (   0.0 sec)
nearest neighbour list constructed           ...    0.0 sec
Grid point re-assignment to atoms done       ...    0.0 sec
Grid point division into batches done        ...    0.0 sec
Reduced shell lists constructed in    0.0 sec

Total number of grid points                  ...     1214
Total number of batches                      ...       20
Average number of points per batch           ...       60
Average number of grid points per atom       ...      405
Average number of shells per batch           ...    17.38 (91.48%)
Average number of basis functions per batch  ...    40.24 (93.58%)
Average number of large shells per batch     ...    17.14 (98.63%)
Average number of large basis fcns per batch ...    39.81 (98.93%)
Maximum spatial batch extension              ...  16.21, 13.89, 17.98 au
Average spatial batch extension              ...   8.69,  7.37,  9.05 au

Overlap Fitting                  UseSFitting ... on
Constructing numerical overlap ... done (      0.0 sec)
Inverting numerical overlap    ... done (      0.0 sec)
Obtaining analytic overlap     ... done (      0.0 sec)
Final contraction and storage  ... done (      0.0 sec)


General Integration Accuracy     IntAcc      ...  3.670
Radial Grid Type                 RadialGrid  ... Gauss-Chebyshev
Angular Grid (max. acc.)         AngularGrid ... Lebedev-50
Angular grid pruning method      GridPruning ... 3 (G Style)
Weight generation scheme         WeightScheme... Becke
Basis function cutoff            BFCut       ...    1.0000e-11
Integration weight cutoff        WCut        ...    1.0000e-14
Grids for H and He will be reduced by one unit

# of grid points (after initial pruning)     ...   1602 (   0.0 sec)
# of grid points (after weights+screening)   ...   1594 (   0.0 sec)
nearest neighbour list constructed           ...    0.0 sec
Grid point re-assignment to atoms done       ...    0.0 sec
Grid point division into batches done        ...    0.0 sec
Reduced shell lists constructed in    0.0 sec

Total number of grid points                  ...     1594
Total number of batches                      ...       26
Average number of points per batch           ...       61
Average number of grid points per atom       ...      531
Average number of shells per batch           ...    17.41 (91.62%)
Average number of basis functions per batch  ...    40.52 (94.23%)
Average number of large shells per batch     ...    17.07 (98.09%)
Average number of large basis fcns per batch ...    39.96 (98.63%)
Maximum spatial batch extension              ...  20.50, 15.20, 20.07 au
Average spatial batch extension              ...   7.61,  6.56,  7.42 au

Overlap Fitting                  UseSFitting ... on
Constructing numerical overlap ... done (      0.0 sec)
Inverting numerical overlap    ... done (      0.0 sec)
Obtaining analytic overlap     ... done (      0.0 sec)
Final contraction and storage  ... done (      0.0 sec)


General Integration Accuracy     IntAcc      ...  4.010
Radial Grid Type                 RadialGrid  ... Gauss-Chebyshev
Angular Grid (max. acc.)         AngularGrid ... Lebedev-110
Angular grid pruning method      GridPruning ... 3 (G Style)
Weight generation scheme         WeightScheme... Becke
Basis function cutoff            BFCut       ...    1.0000e-11
Integration weight cutoff        WCut        ...    1.0000e-14
Grids for H and He will be reduced by one unit

# of grid points (after initial pruning)     ...   2758 (   0.0 sec)
# of grid points (after weights+screening)   ...   2747 (   0.0 sec)
nearest neighbour list constructed           ...    0.0 sec
Grid point re-assignment to atoms done       ...    0.0 sec
Grid point division into batches done        ...    0.0 sec
Reduced shell lists constructed in    0.0 sec

Total number of grid points                  ...     2747
Total number of batches                      ...       44
Average number of points per batch           ...       62
Average number of grid points per atom       ...      916
Average number of shells per batch           ...    17.38 (91.46%)
Average number of basis functions per batch  ...    40.36 (93.85%)
Average number of large shells per batch     ...    16.73 (96.29%)
Average number of large basis fcns per batch ...    38.78 (96.09%)
Maximum spatial batch extension              ...  17.95, 16.09, 20.15 au
Average spatial batch extension              ...   6.13,  5.64,  5.82 au

Overlap Fitting                  UseSFitting ... on
Constructing numerical overlap ... done (      0.0 sec)
Inverting numerical overlap    ... done (      0.0 sec)
Obtaining analytic overlap     ... done (      0.0 sec)
Final contraction and storage  ... done (      0.0 sec)

Time for X-Grid setup             =    0.206 sec
--------------
SCF ITERATIONS
--------------
ITER       Energy         Delta-E        Max-DP      RMS-DP      [F,P]     Damp
               ***  Starting incremental Fock matrix formation  ***
                      *** Initiating the SOSCF procedure ***
                      *** Re-Reading the Fockian *** 
                      *** Removing any level shift *** 
ITER      Energy       Delta-E        Grad      Rot      Max-DP    RMS-DP
  0    -76.46283000 -76.4628299953  0.001520  0.001520  0.001116  0.000085
               *** Restarting incremental Fock matrix formation ***
  1    -76.46283880  -0.0000088045  0.000682  0.000922  0.001075  0.000074
  2    -76.46283672   0.0000020816  0.000950  0.000496  0.000583  0.000044
  3    -76.46284094  -0.0000042266  0.000036  0.000024  0.000022  0.000002
  4    -76.46284095  -0.0000000041  0.000013  0.000006  0.000004  0.000000
                 **** Energy Check signals convergence ****
              ***Rediagonalizing the Fockian in SOSCF/NRSCF***

               *****************************************************
               *                     SUCCESS                       *
               *           SCF CONVERGED AFTER   5 CYCLES          *
               *****************************************************

Setting up the final grid:

General Integration Accuracy     IntAcc      ...  4.670
Radial Grid Type                 RadialGrid  ... Gauss-Chebyshev
Angular Grid (max. acc.)         AngularGrid ... Lebedev-302
Angular grid pruning method      GridPruning ... 3 (G Style)
Weight generation scheme         WeightScheme... Becke
Basis function cutoff            BFCut       ...    1.0000e-11
Integration weight cutoff        WCut        ...    1.0000e-14
Grids for H and He will be reduced by one unit

# of grid points (after initial pruning)     ...  13000 (   0.0 sec)
# of grid points (after weights+screening)   ...  12881 (   0.0 sec)
nearest neighbour list constructed           ...    0.0 sec
Grid point re-assignment to atoms done       ...    0.0 sec
Grid point division into batches done        ...    0.1 sec
Reduced shell lists constructed in    0.1 sec

Total number of grid points                  ...    12881
Total number of batches                      ...      203
Average number of points per batch           ...       63
Average number of grid points per atom       ...     4294
Average number of shells per batch           ...    15.79 (83.10%)
Average number of basis functions per batch  ...    35.94 (83.57%)
Average number of large shells per batch     ...    14.79 (93.67%)
Average number of large basis fcns per batch ...    33.78 (94.00%)
Maximum spatial batch extension              ...  25.49, 15.87, 18.23 au
Average spatial batch extension              ...   3.66,  3.34,  3.59 au

Final grid set up in    0.1 sec
Final integration                            ... done (   0.1 sec)
Change in XC energy                          ...    -0.000254594
Integrated number of electrons               ...    10.000003694
Previous integrated no of electrons          ...    10.000408425
Old exchange energy                            =     -1.785872542 Eh
New exchange energy                            =     -1.785792409 Eh
Exchange energy change after final integration =      0.000080133 Eh
Total energy after final integration           =    -76.463015411 Eh
Final COS-X integration done in                =     0.240 sec
Total Energy       :          -76.46301541 Eh           -2080.66443 eV
  Last Energy change         ...   -1.5150e-09  Tolerance :   1.0000e-08
  Last MAX-Density change    ...    5.5511e-16  Tolerance :   1.0000e-07
             **** THE GBW FILE WAS UPDATED (input.gbw) ****
             **** DENSITY FILE WAS UPDATED (input.scfp.tmp) ****
             **** ENERGY FILE WAS UPDATED (input.en.tmp) ****
Total SCF time: 0 days 0 hours 0 min 2 sec 


-------------------------------------------------------------------------------
                          DFT DISPERSION CORRECTION                            
                                                                               
                                DFTD3 V2.1  Rev 6                               
                          USING Becke-Johnson damping                          
-------------------------------------------------------------------------------
-------------------------   ----------------
Dispersion correction           -0.000573840
-------------------------   ----------------


-------------------------   --------------------
FINAL SINGLE POINT ENERGY       -76.463589251146
-------------------------   --------------------

------------------------------------------------------------------------------
                         ORCA SCF GRADIENT CALCULATION
------------------------------------------------------------------------------

Gradient of the Kohn-Sham DFT energy:
Kohn-Sham wavefunction type      ... RKS
Hartree-Fock exchange scaling    ...    0.200
Number of operators              ...    1
Number of atoms                  ...    3
Basis set dimensions             ...   43
Integral neglect threshold       ... 2.5e-11
Integral primitive cutoff        ... 2.5e-12

Nuclear repulsion gradient       ... done
One Electron Gradient            ... done
Pre-screening matrix             ... done
RI-J gradient                    ... done
COSX-gradient                    ... done
Exchange-correlation gradient    ... done
Dispersion correction            ... done

------------------
CARTESIAN GRADIENT
------------------

   1   H   :   -0.000017801   -0.000572769   -0.000409968
   2   H   :    0.000026780   -0.000412559   -0.000143870
   3   O   :    0.000425316    0.000000794    0.000961002

Norm of the cartesian gradient     ...    0.001338841
RMS gradient                       ...    0.000446280
MAX gradient                       ...    0.000961002

-------
TIMINGS
-------

Total SCF gradient time            ...        0.977 sec

One electron gradient       ....       0.005 sec  (  0.5%)
Prescreening matrices       ....       0.028 sec  (  2.9%)
RI-J Coulomb gradient       ....       0.133 sec  ( 13.6%)
COSX gradient               ....       0.247 sec  ( 25.2%)
XC gradient                 ....       0.267 sec  ( 27.4%)
------------------------------------------------------------------------------
                         ORCA GEOMETRY RELAXATION STEP
------------------------------------------------------------------------------

Reading the OPT-File                    .... done
Getting information on internals        .... done
Copying old internal coords+grads       .... done
Making the new internal coordinates     .... (new redundants).... done
Validating the new internal coordinates .... (new redundants).... done
Calculating the B-matrix                .... done
Calculating the G,G- and P matrices     .... done
Transforming gradient to internals      .... done
Projecting the internal gradient        .... done
Number of atoms                         ....   3
Number of internal coordinates          ....   3
Current Energy                          ....   -76.463589251 Eh
Current gradient norm                   ....     0.001338841 Eh/bohr
Maximum allowed component of the step   ....  0.300
Current trust radius                    ....  0.300
Updating the Hessian (BFGS)             .... done
Forming the augmented Hessian           .... done
Diagonalizing the augmented Hessian     .... done
Last element of RFO vector              ....  0.999997598
Lowest eigenvalues of augmented Hessian:
 -0.000001610  0.289207283  0.522445713
Length of the computed step             ....  0.002191653
The final length of the internal step   ....  0.002191653
Converting the step to cartesian space:
 Initial RMS(Int)=    0.0012653516
Transforming coordinates:
 Iter   0:  RMS(Cart)=    0.0006233858 RMS(Int)=    0.0012653982
 Iter   1:  RMS(Cart)=    0.0000005110 RMS(Int)=    0.0000008731
 Iter   2:  RMS(Cart)=    0.0000000003 RMS(Int)=    0.0000000007
done
Storing new coordinates                 .... done

                                .--------------------.
          ----------------------|Geometry convergence|---------------------
          Item                value                 Tolerance   Converged
          -----------------------------------------------------------------
          Energy change      -0.00004253            0.00000500      NO
          RMS gradient        0.00044542            0.00010000      NO
          MAX gradient        0.00064272            0.00030000      NO
          RMS step            0.00126535            0.00200000      YES
          MAX step            0.00210865            0.00400000      YES
          ....................................................
          Max(Bonds)      0.0002      Max(Angles)    0.12
          Max(Dihed)        0.00      Max(Improp)    0.00
          -----------------------------------------------------------------

The optimization has not yet converged - more geometry cycles are needed


    ---------------------------------------------------------------------------
                         Redundant Internal Coordinates
                            (Angstroem and degrees)

        Definition                    Value    dE/dq     Step     New-Value
    ----------------------------------------------------------------------------
     1. B(O   2,H   1)                0.9625  0.000284 -0.0002    0.9623   
     2. B(O   2,H   0)                0.9636  0.000318 -0.0002    0.9634   
     3. A(H   0,O   2,H   1)          105.04 -0.000643    0.12    105.16   
    ----------------------------------------------------------------------------

         *************************************************************
         *                GEOMETRY OPTIMIZATION CYCLE   3            *
         *************************************************************
---------------------------------
CARTESIAN COORDINATES (ANGSTROEM)
---------------------------------
  H      0.596333   -0.435555   -0.200056
  H      0.128747    0.941741   -0.672835
  O      0.574921    0.493815    0.052656

----------------------------
CARTESIAN COORDINATES (A.U.)
----------------------------
  NO LB      ZA    FRAG    MASS        X           Y           Z
   0 H     1.0000    0     1.008          1.126905236576412         -0.823079075408963         -0.378051002832524
   1 H     1.0000    0     1.008          0.243295945917156          1.779631774320289         -1.271474666497525
   2 O     8.0000    0    15.999          1.086442791604059          0.933175324736060          0.099506153873151

--------------------------------
INTERNAL COORDINATES (ANGSTROEM)
--------------------------------
 H      0   0   0   0.000000     0.000     0.000
 H      1   0   0   1.529411     0.000     0.000
 O      2   1   0   0.962313    37.442     0.000

---------------------------
INTERNAL COORDINATES (A.U.)
---------------------------
 H      0   0   0   0.000000     0.000     0.000
 H      1   0   0   2.890169     0.000     0.000
 O      2   1   0   1.818509    37.442     0.000

 One Electron integrals                  ... done
 Pre-screening matrix                    ... done

Diagonalization of the overlap matrix:
Smallest eigenvalue                        ... 8.508e-03
Time for diagonalization                   ...    0.001 sec
Threshold for overlap eigenvalues          ... 1.000e-08
Number of eigenvalues below threshold      ... 0
Time for construction of square roots      ...    0.000 sec
Total time needed                          ...    0.001 sec

-------------------
DFT GRID GENERATION
-------------------

General Integration Accuracy     IntAcc      ...  4.340
Radial Grid Type                 RadialGrid  ... Gauss-Chebyshev
Angular Grid (max. acc.)         AngularGrid ... Lebedev-110
Angular grid pruning method      GridPruning ... 3 (G Style)
Weight generation scheme         WeightScheme... Becke
Basis function cutoff            BFCut       ...    1.0000e-11
Integration weight cutoff        WCut        ...    1.0000e-14
Grids for H and He will be reduced by one unit

# of grid points (after initial pruning)     ...   3304 (   0.0 sec)
# of grid points (after weights+screening)   ...   3290 (   0.0 sec)
nearest neighbour list constructed           ...    0.0 sec
Grid point re-assignment to atoms done       ...    0.0 sec
Grid point division into batches done        ...    0.0 sec
Reduced shell lists constructed in    0.0 sec

Total number of grid points                  ...     3290
Total number of batches                      ...       53
Average number of points per batch           ...       62
Average number of grid points per atom       ...     1097
Average number of shells per batch           ...    17.26 (90.84%)
Average number of basis functions per batch  ...    39.81 (92.59%)
Average number of large shells per batch     ...    16.41 (95.06%)
Average number of large basis fcns per batch ...    37.93 (95.26%)
Maximum spatial batch extension              ...  20.70, 16.16, 21.59 au
Average spatial batch extension              ...   6.26,  4.74,  5.94 au

Time for grid setup =    0.018 sec

--------------------
COSX GRID GENERATION
--------------------

General Integration Accuracy     IntAcc      ...  3.340
Radial Grid Type                 RadialGrid  ... Gauss-Chebyshev
Angular Grid (max. acc.)         AngularGrid ... Lebedev-50
Angular grid pruning method      GridPruning ... 3 (G Style)
Weight generation scheme         WeightScheme... Becke
Basis function cutoff            BFCut       ...    1.0000e-11
Integration weight cutoff        WCut        ...    1.0000e-14
Grids for H and He will be reduced by one unit

# of grid points (after initial pruning)     ...   1220 (   0.0 sec)
# of grid points (after weights+screening)   ...   1214 (   0.0 sec)
nearest neighbour list constructed           ...    0.0 sec
Grid point re-assignment to atoms done       ...    0.0 sec
Grid point division into batches done        ...    0.0 sec
Reduced shell lists constructed in    0.0 sec

Total number of grid points                  ...     1214
Total number of batches                      ...       20
Average number of points per batch           ...       60
Average number of grid points per atom       ...      405
Average number of shells per batch           ...    17.38 (91.48%)
Average number of basis functions per batch  ...    40.24 (93.58%)
Average number of large shells per batch     ...    17.14 (98.63%)
Average number of large basis fcns per batch ...    39.81 (98.93%)
Maximum spatial batch extension              ...  16.21, 13.89, 17.99 au
Average spatial batch extension              ...   8.69,  7.41,  9.04 au

Overlap Fitting                  UseSFitting ... on
Constructing numerical overlap ... done (      0.0 sec)
Inverting numerical overlap    ... done (      0.0 sec)
Obtaining analytic overlap     ... done (      0.0 sec)
Final contraction and storage  ... done (      0.0 sec)


General Integration Accuracy     IntAcc      ...  3.670
Radial Grid Type                 RadialGrid  ... Gauss-Chebyshev
Angular Grid (max. acc.)         AngularGrid ... Lebedev-50
Angular grid pruning method      GridPruning ... 3 (G Style)
Weight generation scheme         WeightScheme... Becke
Basis function cutoff            BFCut       ...    1.0000e-11
Integration weight cutoff        WCut        ...    1.0000e-14
Grids for H and He will be reduced by one unit

# of grid points (after initial pruning)     ...   1602 (   0.0 sec)
# of grid points (after weights+screening)   ...   1594 (   0.0 sec)
nearest neighbour list constructed           ...    0.0 sec
Grid point re-assignment to atoms done       ...    0.0 sec
Grid point division into batches done        ...    0.0 sec
Reduced shell lists constructed in    0.0 sec

Total number of grid points                  ...     1594
Total number of batches                      ...       26
Average number of points per batch           ...       61
Average number of grid points per atom       ...      531
Average number of shells per batch           ...    17.41 (91.62%)
Average number of basis functions per batch  ...    40.52 (94.23%)
Average number of large shells per batch     ...    17.07 (98.09%)
Average number of large basis fcns per batch ...    39.96 (98.63%)
Maximum spatial batch extension              ...  20.50, 15.19, 20.07 au
Average spatial batch extension              ...   7.61,  6.56,  7.42 au

Overlap Fitting                  UseSFitting ... on
Constructing numerical overlap ... done (      0.0 sec)
Inverting numerical overlap    ... done (      0.0 sec)
Obtaining analytic overlap     ... done (      0.0 sec)
Final contraction and storage  ... done (      0.0 sec)


General Integration Accuracy     IntAcc      ...  4.010
Radial Grid Type                 RadialGrid  ... Gauss-Chebyshev
Angular Grid (max. acc.)         AngularGrid ... Lebedev-110
Angular grid pruning method      GridPruning ... 3 (G Style)
Weight generation scheme         WeightScheme... Becke
Basis function cutoff            BFCut       ...    1.0000e-11
Integration weight cutoff        WCut        ...    1.0000e-14
Grids for H and He will be reduced by one unit

# of grid points (after initial pruning)     ...   2758 (   0.0 sec)
# of grid points (after weights+screening)   ...   2747 (   0.0 sec)
nearest neighbour list constructed           ...    0.0 sec
Grid point re-assignment to atoms done       ...    0.0 sec
Grid point division into batches done        ...    0.0 sec
Reduced shell lists constructed in    0.0 sec

Total number of grid points                  ...     2747
Total number of batches                      ...       44
Average number of points per batch           ...       62
Average number of grid points per atom       ...      916
Average number of shells per batch           ...    17.38 (91.46%)
Average number of basis functions per batch  ...    40.36 (93.85%)
Average number of large shells per batch     ...    16.73 (96.29%)
Average number of large basis fcns per batch ...    38.78 (96.09%)
Maximum spatial batch extension              ...  17.95, 16.08, 20.15 au
Average spatial batch extension              ...   6.21,  5.55,  5.93 au

Overlap Fitting                  UseSFitting ... on
Constructing numerical overlap ... done (      0.0 sec)
Inverting numerical overlap    ... done (      0.0 sec)
Obtaining analytic overlap     ... done (      0.0 sec)
Final contraction and storage  ... done (      0.0 sec)

Time for X-Grid setup             =    0.192 sec
--------------
SCF ITERATIONS
--------------
ITER       Energy         Delta-E        Max-DP      RMS-DP      [F,P]     Damp
               ***  Starting incremental Fock matrix formation  ***
                      *** Initiating the SOSCF procedure ***
                      *** Re-Reading the Fockian *** 
                      *** Removing any level shift *** 
ITER      Energy       Delta-E        Grad      Rot      Max-DP    RMS-DP
  0    -76.46284084 -76.4628408422  0.000169  0.000169  0.000209  0.000016
               *** Restarting incremental Fock matrix formation ***
  1    -76.46284103  -0.0000001894  0.000057  0.000072  0.000090  0.000007
  2    -76.46284103   0.0000000050  0.000053  0.000034  0.000053  0.000003
  3    -76.46284104  -0.0000000146  0.000006  0.000010  0.000017  0.000001
                 **** Energy Check signals convergence ****
              ***Rediagonalizing the Fockian in SOSCF/NRSCF***

               *****************************************************
               *                     SUCCESS                       *
               *           SCF CONVERGED AFTER   4 CYCLES          *
               *****************************************************

Setting up the final grid:

General Integration Accuracy     IntAcc      ...  4.670
Radial Grid Type                 RadialGrid  ... Gauss-Chebyshev
Angular Grid (max. acc.)         AngularGrid ... Lebedev-302
Angular grid pruning method      GridPruning ... 3 (G Style)
Weight generation scheme         WeightScheme... Becke
Basis function cutoff            BFCut       ...    1.0000e-11
Integration weight cutoff        WCut        ...    1.0000e-14
Grids for H and He will be reduced by one unit

# of grid points (after initial pruning)     ...  13000 (   0.0 sec)
# of grid points (after weights+screening)   ...  12881 (   0.0 sec)
nearest neighbour list constructed           ...    0.0 sec
Grid point re-assignment to atoms done       ...    0.0 sec
Grid point division into batches done        ...    0.1 sec
Reduced shell lists constructed in    0.1 sec

Total number of grid points                  ...    12881
Total number of batches                      ...      203
Average number of points per batch           ...       63
Average number of grid points per atom       ...     4294
Average number of shells per batch           ...    15.79 (83.13%)
Average number of basis functions per batch  ...    35.96 (83.63%)
Average number of large shells per batch     ...    14.80 (93.73%)
Average number of large basis fcns per batch ...    33.79 (93.97%)
Maximum spatial batch extension              ...  25.49, 15.87, 18.23 au
Average spatial batch extension              ...   3.65,  3.33,  3.59 au

Final grid set up in    0.1 sec
Final integration                            ... done (   0.1 sec)
Change in XC energy                          ...    -0.000255695
Integrated number of electrons               ...    10.000003685
Previous integrated no of electrons          ...    10.000404587
Old exchange energy                            =     -1.785918949 Eh
New exchange energy                            =     -1.785838663 Eh
Exchange energy change after final integration =      0.000080286 Eh
Total energy after final integration           =    -76.463016452 Eh
Final COS-X integration done in                =     0.241 sec
Total Energy       :          -76.46301645 Eh           -2080.66446 eV
  Last Energy change         ...   -1.7474e-09  Tolerance :   1.0000e-08
  Last MAX-Density change    ...    3.3307e-16  Tolerance :   1.0000e-07
             **** THE GBW FILE WAS UPDATED (input.gbw) ****
             **** DENSITY FILE WAS UPDATED (input.scfp.tmp) ****
             **** ENERGY FILE WAS UPDATED (input.en.tmp) ****
Total SCF time: 0 days 0 hours 0 min 2 sec 


-------------------------------------------------------------------------------
                          DFT DISPERSION CORRECTION                            
                                                                               
                                DFTD3 V2.1  Rev 6                               
                          USING Becke-Johnson damping                          
-------------------------------------------------------------------------------
-------------------------   ----------------
Dispersion correction           -0.000573833
-------------------------   ----------------


-------------------------   --------------------
FINAL SINGLE POINT ENERGY       -76.463590285284
-------------------------   --------------------

------------------------------------------------------------------------------
                         ORCA SCF GRADIENT CALCULATION
------------------------------------------------------------------------------

Gradient of the Kohn-Sham DFT energy:
Kohn-Sham wavefunction type      ... RKS
Hartree-Fock exchange scaling    ...    0.200
Number of operators              ...    1
Number of atoms                  ...    3
Basis set dimensions             ...   43
Integral neglect threshold       ... 2.5e-11
Integral primitive cutoff        ... 2.5e-12

Nuclear repulsion gradient       ... done
One Electron Gradient            ... done
Pre-screening matrix             ... done
RI-J gradient                    ... done
COSX-gradient                    ... done
Exchange-correlation gradient    ... done
Dispersion correction            ... done

------------------
CARTESIAN GRADIENT
------------------

   1   H   :    0.000058812   -0.000452359   -0.000222992
   2   H   :    0.000113496   -0.000334596    0.000048531
   3   O   :    0.000259930   -0.000193273    0.000593571

Norm of the cartesian gradient     ...    0.000917741
RMS gradient                       ...    0.000305914
MAX gradient                       ...    0.000593571

-------
TIMINGS
-------

Total SCF gradient time            ...        0.995 sec

One electron gradient       ....       0.005 sec  (  0.5%)
Prescreening matrices       ....       0.028 sec  (  2.9%)
RI-J Coulomb gradient       ....       0.133 sec  ( 13.4%)
COSX gradient               ....       0.247 sec  ( 24.8%)
XC gradient                 ....       0.263 sec  ( 26.4%)
------------------------------------------------------------------------------
                         ORCA GEOMETRY RELAXATION STEP
------------------------------------------------------------------------------

Reading the OPT-File                    .... done
Getting information on internals        .... done
Copying old internal coords+grads       .... done
Making the new internal coordinates     .... (new redundants).... done
Validating the new internal coordinates .... (new redundants).... done
Calculating the B-matrix                .... done
Calculating the G,G- and P matrices     .... done
Transforming gradient to internals      .... done
Projecting the internal gradient        .... done
Number of atoms                         ....   3
Number of internal coordinates          ....   3
Current Energy                          ....   -76.463590285 Eh
Current gradient norm                   ....     0.000917741 Eh/bohr
Maximum allowed component of the step   ....  0.300
Current trust radius                    ....  0.300
Updating the Hessian (BFGS)             .... done
Forming the augmented Hessian           .... done
Diagonalizing the augmented Hessian     .... done
Last element of RFO vector              ....  0.999997026
Lowest eigenvalues of augmented Hessian:
 -0.000000932  0.150458833  0.522467179
Length of the computed step             ....  0.002439024
The final length of the internal step   ....  0.002439024
Converting the step to cartesian space:
 Initial RMS(Int)=    0.0014081712
Transforming coordinates:
 Iter   0:  RMS(Cart)=    0.0007038413 RMS(Int)=    0.0014082242
 Iter   1:  RMS(Cart)=    0.0000006276 RMS(Int)=    0.0000010857
 Iter   2:  RMS(Cart)=    0.0000000004 RMS(Int)=    0.0000000010
done
Storing new coordinates                 .... done

                                .--------------------.
          ----------------------|Geometry convergence|---------------------
          Item                value                 Tolerance   Converged
          -----------------------------------------------------------------
          Energy change      -0.00000103            0.00000500      YES
          RMS gradient        0.00023080            0.00010000      NO
          MAX gradient        0.00034124            0.00030000      NO
          RMS step            0.00140817            0.00200000      YES
          MAX step            0.00236400            0.00400000      YES
          ....................................................
          Max(Bonds)      0.0002      Max(Angles)    0.14
          Max(Dihed)        0.00      Max(Improp)    0.00
          -----------------------------------------------------------------

The optimization has not yet converged - more geometry cycles are needed


    ---------------------------------------------------------------------------
                         Redundant Internal Coordinates
                            (Angstroem and degrees)

        Definition                    Value    dE/dq     Step     New-Value
    ----------------------------------------------------------------------------
     1. B(O   2,H   1)                0.9623  0.000137 -0.0002    0.9621   
     2. B(O   2,H   0)                0.9634  0.000157 -0.0002    0.9631   
     3. A(H   0,O   2,H   1)          105.16 -0.000341    0.14    105.30   
    ----------------------------------------------------------------------------

         *************************************************************
         *                GEOMETRY OPTIMIZATION CYCLE   4            *
         *************************************************************
---------------------------------
CARTESIAN COORDINATES (ANGSTROEM)
---------------------------------
  H      0.596615   -0.435869   -0.199606
  H      0.128714    0.942347   -0.672708
  O      0.574671    0.493523    0.052079

----------------------------
CARTESIAN COORDINATES (A.U.)
----------------------------
  NO LB      ZA    FRAG    MASS        X           Y           Z
   0 H     1.0000    0     1.008          1.127439122231953         -0.823672892168561         -0.377201206324559
   1 H     1.0000    0     1.008          0.243233342137000          1.780778197546782         -1.271233288403932
   2 O     8.0000    0    15.999          1.085971509728674          0.932622718269165          0.098414979271592

[...]
  Split-RI-J                ....       0.260 sec  ( 36.2% of F)
  Chain of spheres X        ....       0.564 sec  ( 78.4% of F)
  COS-X 1 center corr.      ....       0.000 sec  (  0.0% of F)
  XC integration            ....       0.134 sec  ( 18.6% of F)
    Basis function eval.    ....       0.049 sec  ( 36.8% of XC)
    Density eval.           ....       0.020 sec  ( 15.2% of XC)
    XC-Functional eval.     ....       0.030 sec  ( 22.4% of XC)
    XC-Potential eval.      ....       0.029 sec  ( 21.8% of XC)
Diagonalization             ....       0.001 sec  (  0.0%)
Density matrix formation    ....       0.000 sec  (  0.0%)
Population analysis         ....       0.001 sec  (  0.1%)
Initial guess               ....       0.001 sec  (  0.1%)
Orbital Transformation      ....       0.000 sec  (  0.0%)
Orbital Orthonormalization  ....       0.001 sec  (  0.0%)
DIIS solution               ....       0.000 sec  (  0.0%)
SOSCF solution              ....       0.005 sec  (  0.4%)
Grid generation             ....       0.355 sec  ( 24.5%)


-------------------------------------------------------------------------------
                          DFT DISPERSION CORRECTION                            
                                                                               
                                DFTD3 V2.1  Rev 6                               
                          USING Becke-Johnson damping                          
-------------------------------------------------------------------------------
Gaussians B3LYP functional is recognized, using normal B3LYP params
Active option DFTDOPT                   ...         4   

molecular C6(AA) [au] = 44.533874 


            DFT-D V3
 parameters
 s6 scaling factor         :     1.0000 
 a1 scaling factor         :     0.3981 
 s8 scaling factor         :     1.9889 
 a2 scaling factor         :     4.4211 
 ad hoc parameters k1-k3   :    16.0000     1.3333    -4.0000 

 Edisp/kcal,au: -0.360081153407  -0.000573825783 
 E6   /kcal   :  -0.196904482 
 E8   /kcal   :  -0.163176671 
 % E8         :  45.316637525 

-------------------------   ----------------
Dispersion correction           -0.000573826
-------------------------   ----------------


-------------------------   --------------------
FINAL SINGLE POINT ENERGY       -76.463590533768
-------------------------   --------------------

                                *** OPTIMIZATION RUN DONE ***

                            ***************************************
                            *     ORCA property calculations      *
                            ***************************************

                                    ---------------------
                                    Active property flags
                                    ---------------------
   (+) Dipole Moment


------------------------------------------------------------------------------
                       ORCA ELECTRIC PROPERTIES CALCULATION
------------------------------------------------------------------------------

Dipole Moment Calculation                       ... on
Quadrupole Moment Calculation                   ... off
Polarizability Calculation                      ... off
GBWName                                         ... input.gbw
Electron density file                           ... input.scfp.tmp

-------------
DIPOLE MOMENT
-------------
                                X             Y             Z
Electronic contribution:      0.06096       0.06700       0.13248
Nuclear contribution   :     -0.35293      -0.40000      -0.81277
                        -----------------------------------------
Total Dipole Moment    :     -0.29197      -0.33301      -0.68029
                        -----------------------------------------
Magnitude (a.u.)       :      0.81175
Magnitude (Debye)      :      2.06331


-------------------------------------------------------------------------------
                               ORCA SCF HESSIAN
-------------------------------------------------------------------------------

Hessian of the Kohn-Sham DFT energy:
Kohn-Sham wavefunction type                      ... RKS
Hartree-Fock exchange scaling                    ...    0.200
Number of operators                              ...    1
Number of atoms                                  ...    3
Basis set dimensions                             ...   43
Integral neglect threshold                       ... 2.5e-11
Integral primitive cutoff                        ... 2.5e-12

Setting up DFT Hessian calculations              ... 
Electron density on the grid                     ... found on disk
Electron density on the final grid               ... found on disk
Building xc-kernel on the grid                   ... done   (      0.0 sec)
Building xc-kernel on the final grid             ... done   (      0.1 sec)
                                                     done   (      0.1 sec)

Nuclear repulsion Hessian                        ... done   (      0.0 sec)

----------------------------------------------
Forming right-hand sides of CP-SCF equations     ...
----------------------------------------------
One electron integral derivatives                ... done   (      0.3 sec)
Transforming the overlap derivative matrices     ... done   (      0.1 sec)
Making the Q(x) pseudodensities                  ... done   (      0.0 sec)
Adding the E*S(x)*S(y) terms to the Hessian      ... done   (      0.0 sec)
Calculating energy weighted overlap derivatives  ... done   (      0.0 sec)
Two electron integral derivatives (RI)           ... done   (      0.6 sec)
Exchange-correlation integral derivatives        ... done   (      1.0 sec)
tr(F(y)Q(x)) contribution to the Hessian         ... done   (      0.0 sec)
Response fock operator R(S(x)) (RIJCOSX)         ... done   (      0.7 sec)
XC Response fock operator R(S(x))                ... done   (      0.3 sec)
tr(F(y)S(x)) contribution to the Hessian         ... done   (      0.0 sec)
Transforming and finalizing RHSs                 ... done   (      0.0 sec)

----------------------------------------------
Solving the CP-SCF equations (RIJCOSX)           ...
----------------------------------------------
     CP-SCF ITERATION   0: 
     CP-SCF ITERATION   1:      0.000566914
     CP-SCF ITERATION   2:      0.000014019
     CP-SCF ITERATION   3:      0.000000196
     CP-SCF ITERATION   4:      0.000000007

                                                 ... done   (      2.3 sec)
Forming perturbed density Hessian contributions  ... done   (      0.0 sec)
2nd integral derivative contribs (RI)            ... done   (      2.0 sec)
Exchange-correlation Hessian                     ... done   (      1.4 sec)
Dispersion correction in the Hessian             ... done   (      0.8 sec)
Dipol derivatives                                ... done   (      0.1 sec)

Total SCF Hessian time: 0 days 0 hours 0 min 9 sec 

Writing the Hessian file to the disk             ... done


-----------------------
VIBRATIONAL FREQUENCIES
-----------------------

   0:         0.00 cm**-1
   1:         0.00 cm**-1
   2:         0.00 cm**-1
   3:         0.00 cm**-1
   4:         0.00 cm**-1
   5:         0.00 cm**-1
   6:      1616.13 cm**-1
   7:      3785.54 cm**-1
   8:      3892.23 cm**-1


------------
NORMAL MODES
------------

These modes are the cartesian displacements weighted by the diagonal matrix
M(i,i)=1/sqrt(m[i]) where m[i] is the mass of the displaced atom
Thus, these vectors are normalized but *not* orthogonal

                  0          1          2          3          4          5    
      0       0.000000   0.000000   0.000000   0.000000   0.000000   0.000000
      1       0.000000   0.000000   0.000000   0.000000   0.000000   0.000000
      2       0.000000   0.000000   0.000000   0.000000   0.000000   0.000000
      3       0.000000   0.000000   0.000000   0.000000   0.000000   0.000000
      4       0.000000   0.000000   0.000000   0.000000   0.000000   0.000000
      5       0.000000   0.000000   0.000000   0.000000   0.000000   0.000000
      6       0.000000   0.000000   0.000000   0.000000   0.000000   0.000000
      7       0.000000   0.000000   0.000000   0.000000   0.000000   0.000000
      8       0.000000   0.000000   0.000000   0.000000   0.000000   0.000000
                   6          7          8    
      0      -0.334168  -0.039319   0.013636
      1       0.147203   0.732168  -0.633773
      2      -0.602996   0.155445  -0.174211
      3      -0.076252   0.300367   0.347446
      4      -0.612433  -0.348214  -0.352454
      5      -0.342193   0.473626   0.563802
      6       0.025858  -0.016447  -0.022750
      7       0.029311  -0.024191   0.062136
      8       0.059551  -0.039634  -0.024546


-----------
IR SPECTRUM
-----------

 Mode    freq (cm**-1)   T**2         TX         TY         TZ
-------------------------------------------------------------------
   6:      1616.13   77.286831  ( -3.164547  -3.608711  -7.365438)
   7:      3785.54    2.023210  ( -0.493886  -0.480192  -1.244469)
   8:      3892.23    2.525176  (  0.439095  -1.464005   0.434810)

The first frequency considered to be a vibration is 6
The total number of vibrations considered is 3


--------------------------
THERMOCHEMISTRY AT 298.15K
--------------------------

Temperature         ... 298.15 K
Pressure            ... 1.00 atm
Total Mass          ... 18.02 AMU

Throughout the following assumptions are being made:
  (1) The electronic state is orbitally nondegenerate
  (2) There are no thermally accessible electronically excited states
  (3) Hindered rotations indicated by low frequency modes) are not
      treated as such but are treated as vibrations and this may
      case some error
  (4) All equations used are the standard statistical mechanics
      equations for an ideal gas
  (5) All vibrations are strinctly harmonic


------------
INNER ENERGY
------------

The inner energy is: U= E(el) + E(ZPE) + E(vib) + E(rot) + E(trans)
    E(el)   - is the total energy from the electronic structure calculation
              = E(kin-el) + E(nuc-el) + E(el-el) + E(nuc-nuc)
    E(ZPE)  - the the zero temperature vibrational energy from the frequency calculation
    E(vib)  - the the finite temperature correction to E(ZPE) due to population
              of excietd vibrational states
    E(rot)  - is the rotational thermal energy
    E(trans)- is the translational thermal energy

Summary of contributions to the inner energy U:
Electronic energy                ...    -76.46359053 Eh
Zero point energy                ...      0.02117307 Eh      13.29 kcal/mol
Thermal vibrational correction   ...      0.00000302 Eh       0.00 kcal/mol
Thermal rotational correction    ...      0.00141627 Eh       0.89 kcal/mol
Thermal translational correction ...      0.00141627 Eh       0.89 kcal/mol
-----------------------------------------------------------------------
Total thermal energy                    -76.43958190 Eh


Summary of corrections to the electronic energy:
(perhaps to be used in another calculation)
Total thermal correction                  0.00283557 Eh       1.78 kcal/mol
Non-thermal (ZPE) correction              0.02117307 Eh      13.29 kcal/mol
-----------------------------------------------------------------------
Total correction                          0.02400863 Eh      15.07 kcal/mol


--------
ENTHALPY
--------

The enthalpy is H = U + kB*T
                kB is Boltzmann's constant
Total free energy                 ...    -76.43958190 Eh 
Thermal Enthalpy correction       ...      0.00094421 Eh       0.59 kcal/mol
-----------------------------------------------------------------------
Total Enthalpy                    ...    -76.43863769 Eh


-------
ENTROPY
-------

The entropy contributions are T*S = T*(S(el)+S(vib)+S(rot)+S(trans)
     S(el)   - electronic entropy
     S(vib)  - vibrational entropy
     S(rot)  - rotational entropy
     S(trans)- translational entropy
The entropies will be listed as mutliplied by the temperature to get
units of energy

Electronic entropy                ...      0.00000000 Eh      0.00 kcal/mol
Vibrational entropy               ...      0.00000341 Eh      0.00 kcal/mol
Rotational entropy                ...      0.00459345 Eh      2.88 kcal/mol
Translational entropy             ...      0.01644380 Eh     10.32 kcal/mol
-----------------------------------------------------------------------
Final entropy term                ...      0.02104066 Eh     13.20 kcal/mol


CAUTION: The rotational entropy is not quite correctly treated here
         because it includes a symmetry number that is not yet correctly
         implemented in ORCA!
For a nonlinear molecule the correct rotational entropy is:
    S(rot) = R*(ln(qrot/sn)+1.5)
    R    = 8.31441 J/mol/K = 1.987191683e-3 kcal/mol/K
    qrot =   86.8010769
    sn is the rotational symmetry number. We have assumed 3 here
       if it is different for your molecule then you should correct
       the printed rotational entropy by manually evaluating the equation
       as given above

For convenience we print out the resulting values for sn=1 - 12:
 sn= 1  qrot/sn=      86.8011 T*S(rot)=     3.53 kcal/mol T*S(tot)=    13.85 kcal/mol
 sn= 2  qrot/sn=      43.4005 T*S(rot)=     3.12 kcal/mol T*S(tot)=    13.44 kcal/mol
 sn= 3  qrot/sn=      28.9337 T*S(rot)=     2.88 kcal/mol T*S(tot)=    13.20 kcal/mol
 sn= 4  qrot/sn=      21.7003 T*S(rot)=     2.71 kcal/mol T*S(tot)=    13.03 kcal/mol
 sn= 5  qrot/sn=      17.3602 T*S(rot)=     2.58 kcal/mol T*S(tot)=    12.90 kcal/mol
 sn= 6  qrot/sn=      14.4668 T*S(rot)=     2.47 kcal/mol T*S(tot)=    12.79 kcal/mol
 sn= 7  qrot/sn=      12.4002 T*S(rot)=     2.38 kcal/mol T*S(tot)=    12.70 kcal/mol
 sn= 8  qrot/sn=      10.8501 T*S(rot)=     2.30 kcal/mol T*S(tot)=    12.62 kcal/mol
 sn= 9  qrot/sn=       9.6446 T*S(rot)=     2.23 kcal/mol T*S(tot)=    12.55 kcal/mol
 sn=10  qrot/sn=       8.6801 T*S(rot)=     2.17 kcal/mol T*S(tot)=    12.49 kcal/mol
 sn=11  qrot/sn=       7.8910 T*S(rot)=     2.11 kcal/mol T*S(tot)=    12.43 kcal/mol
 sn=12  qrot/sn=       7.2334 T*S(rot)=     2.06 kcal/mol T*S(tot)=    12.38 kcal/mol


-------------------
GIBBS FREE ENTHALPY
-------------------

The Gibbs free enthalpy is G = H - T*S

Total enthalpy                    ...    -76.43863769 Eh 
Total entropy correction          ...     -0.02104066 Eh    -13.20 kcal/mol
-----------------------------------------------------------------------
Final Gibbs free enthalpy         ...    -76.45967835 Eh

For completeness - the Gibbs free enthalpy minus the electronic energy
G-E(el)                           ...      0.00391218 Eh      2.45 kcal/mol


Timings for individual modules:

Sum of individual times         ...       29.654 sec (=   0.494 min)
GTO integral calculation        ...        0.802 sec (=   0.013 min)   2.7 %
SCF iterations                  ...       13.306 sec (=   0.222 min)  44.9 %
SCF Gradient evaluation         ...        4.031 sec (=   0.067 min)  13.6 %
Geometry relaxation             ...        0.079 sec (=   0.001 min)   0.3 %
Analytical frequency calculation...       11.435 sec (=   0.191 min)  38.6 %
                             ****ORCA TERMINATED NORMALLY****
TOTAL RUN TIME: 0 days 0 hours 0 minutes 30 seconds 119 msec
#
# Number of atoms
#
 3
#
# The current total energy in Eh
#
    -76.463590533768
#
# The current gradient in Eh/bohr
#
       0.000145483753
      -0.000339579704
      -0.000018889138
       0.000197693214
      -0.000233483963
       0.000243248802
       0.000086734598
      -0.000402090668
       0.000208077641
#
# The atomic numbers and current coordinates in Bohr
#
   1     1.1274419   -0.8236771   -0.3771972 
   1     0.2432326    1.7807845   -1.2712328 
   8     1.0859695    0.9326206    0.0984104 

$orca_hessian_file

$act_atom
  0

$act_coord
  0

$act_energy
        0.000000

$hessian
9
                  0          1          2          3          4          5    
      0       0.011431  -0.024572   0.014155  -0.001342   0.023645   0.004914
      1      -0.024574   0.500919   0.111315  -0.003495  -0.022703  -0.013973
      2       0.014155   0.111314   0.062971  -0.003713   0.038710   0.005118
      3      -0.001343  -0.003496  -0.003711   0.112834  -0.116747   0.183056
      4       0.023645  -0.022708   0.038707  -0.116747   0.165358  -0.174635
      5       0.004917  -0.013975   0.005113   0.183053  -0.174633   0.300097
      6      -0.010105   0.028034  -0.010417  -0.111472   0.092972  -0.187874
      7       0.000884  -0.478024  -0.150092   0.120109  -0.142644   0.188516
      8      -0.019052  -0.097351  -0.068082  -0.179196   0.135783  -0.305180
                   6          7          8    
      0      -0.010090   0.000926  -0.019069
      1       0.028069  -0.478217  -0.097344
      2      -0.010442  -0.150024  -0.068088
      3      -0.111492   0.120243  -0.179346
      4       0.093101  -0.142653   0.135930
      5      -0.187969   0.188607  -0.305215
      6       0.121578  -0.121005   0.198292
      7      -0.120991   0.620672  -0.038423
      8       0.198247  -0.038431   0.373266

$vibrational_frequencies
9
    0        0.000000
    1        0.000000
    2        0.000000
    3        0.000000
    4        0.000000
    5        0.000000
    6     1616.133884
    7     3785.538218
    8     3892.230555

$normal_modes
9 9
                  0          1          2          3          4          5    
      0       0.000000   0.000000   0.000000   0.000000   0.000000   0.000000
      1       0.000000   0.000000   0.000000   0.000000   0.000000   0.000000
      2       0.000000   0.000000   0.000000   0.000000   0.000000   0.000000
      3       0.000000   0.000000   0.000000   0.000000   0.000000   0.000000
      4       0.000000   0.000000   0.000000   0.000000   0.000000   0.000000
      5       0.000000   0.000000   0.000000   0.000000   0.000000   0.000000
      6       0.000000   0.000000   0.000000   0.000000   0.000000   0.000000
      7       0.000000   0.000000   0.000000   0.000000   0.000000   0.000000
      8       0.000000   0.000000   0.000000   0.000000   0.000000   0.000000
                   6          7          8    
      0      -0.334168  -0.039319   0.013636
      1       0.147203   0.732168  -0.633773
      2      -0.602996   0.155445  -0.174211
      3      -0.076252   0.300367   0.347446
      4      -0.612433  -0.348214  -0.352454
      5      -0.342193   0.473626   0.563802
      6       0.025858  -0.016447  -0.022750
      7       0.029311  -0.024191   0.062136
      8       0.059551  -0.039634  -0.024546

#
# The atoms: label  mass x y z
#
$atoms
3
 H      1.0080      1.127442    -0.823677    -0.377197
 H      1.0080      0.243233     1.780784    -1.271233
 O     15.9990      1.085970     0.932621     0.098410

$actual_temperature
  0.000000

$dipole_derivatives
9
     0.371676    -0.010468    -0.043889
     0.003237     0.044446    -0.108381
    -0.040125    -0.136104     0.272407
     0.303041     0.064652    -0.154825
     0.049892     0.275832     0.062172
    -0.160011     0.089367     0.109678
    -0.674746    -0.054159     0.198688
    -0.053154    -0.320323     0.046146
     0.200139     0.046691    -0.382057

#
# The IR spectrum
#  wavenumber T**2 TX TY  TY
#
$ir_spectrum
9
      0.00       0.0000       0.0000       0.0000       0.0000
      0.00       0.0000       0.0000       0.0000       0.0000
      0.00       0.0000       0.0000       0.0000       0.0000
      0.00       0.0000       0.0000       0.0000       0.0000
      0.00       0.0000       0.0000       0.0000       0.0000
      0.00       0.0000       0.0000       0.0000       0.0000
   1616.13      77.2868      -3.1645      -3.6087      -7.3654
   3785.54       2.0232      -0.4939      -0.4802      -1.2445
   3892.23       2.5252       0.4391      -1.4640       0.4348


$end

