begin
comment by runHNNP
atom 1.162759011131 -0.883041407035 -0.327342570135 H 0.000000000000 0.000000000000 0.000000000000 0.000000000000 0.000000000000
atom 0.287098275914 1.802574450552 -1.179057930296 H 0.000000000000 0.000000000000 0.000000000000 0.000000000000 0.000000000000
atom 1.125830439209 0.889780502262 0.162331655193 O 0.000000000000 0.000000000000 0.000000000000 0.000000000000 0.000000000000
energy  0
charge  0
end
