H2O Opt freq                                                            
Freq      RHF                                                         6-31G               
Number of atoms                            I                3
Info1-9                                    I   N=           9
          10          10        1002           0           0         100
           6           1           2
Charge                                     I                0
Multiplicity                               I                1
Number of electrons                        I               10
Number of alpha electrons                  I                5
Number of beta electrons                   I                5
Number of basis functions                  I               13
Number of independent functions            I               13
Number of point charges in /Mol/           I                0
Number of translation vectors              I                0
Atomic numbers                             I   N=           3
           8           1           1
Nuclear charges                            R   N=           3
  8.00000000E+00  1.00000000E+00  1.00000000E+00
Current cartesian coordinates              R   N=           9
 -3.98342323E-32  0.00000000E+00  2.01650572E-01  0.00000000E+00  1.48391986E+00
 -8.06602289E-01 -1.81727771E-16 -1.48391986E+00 -8.06602289E-01
Force Field                                I                0
Int Atom Types                             I   N=           3
           0           0           0
MM charges                                 R   N=           3
  0.00000000E+00  0.00000000E+00  0.00000000E+00
Integer atomic weights                     I   N=           3
          16           1           1
Real atomic weights                        R   N=           3
  1.59949146E+01  1.00782504E+00  1.00782504E+00
Atom fragment info                         I   N=           3
           0           0           0
Atom residue num                           I   N=           3
           0           0           0
Nuclear spins                              I   N=           3
           0           1           1
Nuclear ZEff                               R   N=           3
 -5.60000000E+00 -1.00000000E+00 -1.00000000E+00
Nuclear ZNuc                               R   N=           3
  8.00000000E+00  1.00000000E+00  1.00000000E+00
Nuclear QMom                               R   N=           3
  0.00000000E+00  0.00000000E+00  0.00000000E+00
Nuclear GFac                               R   N=           3
  0.00000000E+00  2.79284600E+00  2.79284600E+00
MicOpt                                     I   N=           3
          -1          -1          -1
Number of contracted shells                I                7
Number of primitive shells                 I               18
Pure/Cartesian d shells                    I                1
Pure/Cartesian f shells                    I                0
Highest angular momentum                   I                1
Largest degree of contraction              I                6
Shell types                                I   N=           7
           0          -1          -1           0           0           0
           0
Number of primitives per shell             I   N=           7
           6           3           1           3           1           3
           1
Shell to atom map                          I   N=           7
           1           1           1           2           2           3
           3
Primitive exponents                        R   N=          18
  5.48467166E+03  8.25234946E+02  1.88046958E+02  5.29645000E+01  1.68975704E+01
  5.79963534E+00  1.55396162E+01  3.59993359E+00  1.01376175E+00  2.70005823E-01
  1.87311370E+01  2.82539436E+00  6.40121692E-01  1.61277759E-01  1.87311370E+01
  2.82539436E+00  6.40121692E-01  1.61277759E-01
Contraction coefficients                   R   N=          18
  1.83107443E-03  1.39501722E-02  6.84450781E-02  2.32714336E-01  4.70192898E-01
  3.58520853E-01 -1.10777550E-01 -1.48026263E-01  1.13076702E+00  1.00000000E+00
  3.34946043E-02  2.34726953E-01  8.13757326E-01  1.00000000E+00  3.34946043E-02
  2.34726953E-01  8.13757326E-01  1.00000000E+00
P(S=P) Contraction coefficients            R   N=          18
  0.00000000E+00  0.00000000E+00  0.00000000E+00  0.00000000E+00  0.00000000E+00
  0.00000000E+00  7.08742682E-02  3.39752839E-01  7.27158577E-01  1.00000000E+00
  0.00000000E+00  0.00000000E+00  0.00000000E+00  0.00000000E+00  0.00000000E+00
  0.00000000E+00  0.00000000E+00  0.00000000E+00
Coordinates of each shell                  R   N=          21
 -3.98342323E-32  0.00000000E+00  2.01650572E-01 -3.98342323E-32  0.00000000E+00
  2.01650572E-01 -3.98342323E-32  0.00000000E+00  2.01650572E-01  0.00000000E+00
  1.48391986E+00 -8.06602289E-01  0.00000000E+00  1.48391986E+00 -8.06602289E-01
 -1.81727771E-16 -1.48391986E+00 -8.06602289E-01 -1.81727771E-16 -1.48391986E+00
 -8.06602289E-01
Constraint Structure                       R   N=           9
 -3.98342323E-32  0.00000000E+00  2.01650572E-01  0.00000000E+00  1.48391986E+00
 -8.06602289E-01 -1.81727771E-16 -1.48391986E+00 -8.06602289E-01
Num ILSW                                   I              100
ILSW                                       I   N=         100
           0           1           0           0           2           0
           0           0           0           0           0          -1
           0           0           0           0           2           0
           0           0           0           0           1           0
           1           0           0           0           0           0
           0           0      100000           0          -1           0
           0           0           0           0           0           0
           0           0           0           1           0           0
           0           0           1           0           0           0
           0           0           4          41           0           0
           0           0           0           0           0           0
           0           0           0           3           0           0
           0           0           0           0           0           0
           0           0           0           0           0           0
           0           0           0           0           0           0
           0           0           0           0           0           0
           0           0           0           0
Num RLSW                                   I               41
RLSW                                       R   N=          41
  1.00000000E+00  1.00000000E+00  1.00000000E+00  1.00000000E+00  1.00000000E+00
  0.00000000E+00  0.00000000E+00  1.00000000E+00  0.00000000E+00  0.00000000E+00
  0.00000000E+00  0.00000000E+00  1.00000000E+00  0.00000000E+00  0.00000000E+00
  0.00000000E+00  0.00000000E+00  1.00000000E+00  0.00000000E+00  0.00000000E+00
  0.00000000E+00  0.00000000E+00  1.00000000E+00  0.00000000E+00  0.00000000E+00
  0.00000000E+00  0.00000000E+00  1.00000000E+00  0.00000000E+00  0.00000000E+00
  0.00000000E+00  0.00000000E+00  1.00000000E+00  0.00000000E+00  0.00000000E+00
  0.00000000E+00  0.00000000E+00  0.00000000E+00  1.00000000E+00  1.00000000E+00
  0.00000000E+00
MxBond                                     I                2
NBond                                      I   N=           3
           2           1           1
IBond                                      I   N=           6
           2           3           1           0           1           0
RBond                                      R   N=           6
  1.00000000E-01  1.00000000E-01  1.00000000E-01  0.00000000E+00  1.00000000E-01
  0.00000000E+00
Virial Ratio                               R      1.999601907645809E+00
SCF Energy                                 R     -7.598535895140817E+01
Total Energy                               R     -7.598535895140817E+01
RMS Force                                  R      1.894116498969693E-04
External E-field                           R   N=          35
  0.00000000E+00  0.00000000E+00  0.00000000E+00  0.00000000E+00  0.00000000E+00
  0.00000000E+00  0.00000000E+00  0.00000000E+00  0.00000000E+00  0.00000000E+00
  0.00000000E+00  0.00000000E+00  0.00000000E+00  0.00000000E+00  0.00000000E+00
  0.00000000E+00  0.00000000E+00  0.00000000E+00  0.00000000E+00  0.00000000E+00
  0.00000000E+00  0.00000000E+00  0.00000000E+00  0.00000000E+00  0.00000000E+00
  0.00000000E+00  0.00000000E+00  0.00000000E+00  0.00000000E+00  0.00000000E+00
  0.00000000E+00  0.00000000E+00  0.00000000E+00  0.00000000E+00  0.00000000E+00
IOpCl                                      I                0
IROHF                                      I                0
Alpha Orbital Energies                     R   N=          13
 -2.05533822E+01 -1.35259809E+00 -7.26641070E-01 -5.48148780E-01 -4.98282552E-01
  2.07060327E-01  3.02979918E-01  1.10604607E+00  1.16113473E+00  1.16718959E+00
  1.20457719E+00  1.38909294E+00  1.67596214E+00
Alpha MO coefficients                      R   N=         169
  9.95768486E-01  2.20177044E-02  0.00000000E+00  0.00000000E+00 -2.01906966E-03
 -8.05228345E-03  0.00000000E+00  0.00000000E+00  1.78987947E-03  4.84405745E-05
  2.01085044E-03  4.84405745E-05  2.01085044E-03 -2.13126314E-01  4.70052830E-01
  0.00000000E+00  0.00000000E+00 -1.05848641E-01  4.79552268E-01  0.00000000E+00
  0.00000000E+00 -5.63493859E-02  1.40945943E-01 -8.52778514E-03  1.40945943E-01
 -8.52778514E-03  0.00000000E+00  0.00000000E+00  0.00000000E+00  5.04480536E-01
  0.00000000E+00  0.00000000E+00  0.00000000E+00  2.62343065E-01  0.00000000E+00
  2.65540646E-01  1.14622055E-01 -2.65540646E-01 -1.14622055E-01 -7.13358616E-02
  1.70460112E-01  0.00000000E+00  0.00000000E+00  5.60690398E-01  2.89566668E-01
  0.00000000E+00  0.00000000E+00  4.18893374E-01 -1.34449353E-01 -7.50769325E-02
 -1.34449353E-01 -7.50769325E-02  0.00000000E+00  0.00000000E+00  6.40166055E-01
  0.00000000E+00  0.00000000E+00  0.00000000E+00  5.11568673E-01  0.00000000E+00
  0.00000000E+00  0.00000000E+00  0.00000000E+00  0.00000000E+00  0.00000000E+00
 -8.77331218E-02  1.08440567E-01  0.00000000E+00  0.00000000E+00 -2.16158942E-01
  1.21178386E+00  0.00000000E+00  0.00000000E+00 -4.44595667E-01 -6.35388555E-02
 -1.00536865E+00 -6.35388555E-02 -1.00536865E+00  0.00000000E+00  0.00000000E+00
  0.00000000E+00 -3.30161144E-01  0.00000000E+00  0.00000000E+00  0.00000000E+00
 -8.44480352E-01  0.00000000E+00  3.13264162E-02  1.39050773E+00 -3.13264162E-02
 -1.39050773E+00  0.00000000E+00  0.00000000E+00  0.00000000E+00 -1.26569602E-01
  0.00000000E+00  0.00000000E+00  0.00000000E+00 -8.43695741E-01  0.00000000E+00
  1.00036082E+00 -4.10128325E-01 -1.00036082E+00  4.10128325E-01  7.24076223E-02
 -3.17990150E-01  0.00000000E+00  0.00000000E+00  2.63248887E-01  8.78473495E-03
  0.00000000E+00  0.00000000E+00  3.31618358E-01  1.00571795E+00 -4.92266141E-01
  1.00571795E+00 -4.92266141E-01  0.00000000E+00  0.00000000E+00 -9.62410419E-01
  0.00000000E+00  0.00000000E+00  0.00000000E+00  1.03650561E+00  0.00000000E+00
  0.00000000E+00  0.00000000E+00  0.00000000E+00  0.00000000E+00  0.00000000E+00
  3.54688278E-02 -2.24765946E-01  0.00000000E+00  0.00000000E+00 -9.46396485E-01
 -8.71224450E-02  0.00000000E+00  0.00000000E+00  1.15699632E+00  1.07495454E-01
  1.78406487E-01  1.07495454E-01  1.78406487E-01  0.00000000E+00  0.00000000E+00
  0.00000000E+00 -1.03962917E+00  0.00000000E+00  0.00000000E+00  0.00000000E+00
  1.59013947E+00  0.00000000E+00  7.50365102E-02 -9.19542293E-01 -7.50365102E-02
  9.19542293E-01  6.17129112E-02 -1.70425542E+00  0.00000000E+00  0.00000000E+00
  1.78919881E-01  2.75469063E+00  0.00000000E+00  0.00000000E+00 -7.27822145E-01
 -3.60990560E-01 -6.50128628E-01 -3.60990560E-01 -6.50128628E-01
Total SCF Density                          R   N=          91
  2.08413302E+00 -1.80832020E-01  5.00982185E-01  0.00000000E+00  0.00000000E+00
  8.19625157E-01  0.00000000E+00  0.00000000E+00 -6.16297582E-32  5.09001223E-01
 -3.88974556E-02  9.15528788E-02 -1.16805947E-31 -3.21048376E-32  6.51163467E-01
 -2.61759810E-01  5.49194349E-01 -4.00425618E-32 -1.10059460E-32  2.23227105E-01
  6.27768144E-01  0.00000000E+00  0.00000000E+00  6.54977799E-01 -7.85779417E-32
 -1.82075960E-31  0.00000000E+00  5.23405015E-01  0.00000000E+00  0.00000000E+00
 -7.85779417E-32  2.64693940E-01  1.30504188E-32  0.00000000E+00 -7.39557099E-32
  1.37647767E-01 -3.21805544E-02  8.99136641E-02 -8.64004891E-32 -2.37477094E-32
  4.81660769E-01  1.88521340E-01 -6.40926493E-32 -1.76162615E-32  3.57300231E-01
 -4.07999868E-02  8.66697088E-02  5.23852945E-32  2.67920175E-01 -1.80606991E-01
  5.73170111E-02  2.77333912E-32  1.39325494E-01 -1.28524147E-01  2.16908448E-01
  1.83510292E-02 -3.35237151E-02  2.31111593E-32  1.15649192E-01 -8.23926415E-02
 -5.16909756E-02  1.19407657E-32  6.01406025E-02 -6.19301898E-02  7.86580004E-02
  3.77030559E-02 -4.07999868E-02  8.66697088E-02 -5.23852945E-32 -2.67920175E-01
 -1.80606991E-01  5.73170111E-02 -2.77333912E-32 -1.39325494E-01 -1.28524147E-01
 -6.51388897E-02 -4.30892578E-02  2.16908448E-01  1.83510292E-02 -3.35237151E-02
 -2.31111593E-32 -1.15649192E-01 -8.23926415E-02 -5.16909756E-02 -1.19407657E-32
 -6.01406025E-02 -6.19301898E-02 -4.30892578E-02 -1.48498062E-02  7.86580004E-02
  3.77030559E-02
Mulliken Charges                           R   N=           3
 -8.11377419E-01  4.05688710E-01  4.05688710E-01
Optimization MaxStp                        I                2
Optimization Job offset                    I                0
Optimization Num results per geometry      I                2
Optimization Num geometry variables        I                9
Opt point       1 Results for each geome   R   N=           2
 -7.59853590E+01  0.00000000E+00
Opt point       1 Geometries               R   N=           9
 -3.98342323E-32  0.00000000E+00  2.01650572E-01  0.00000000E+00  1.48391986E+00
 -8.06602289E-01 -1.81727771E-16 -1.48391986E+00 -8.06602289E-01
Opt point       1 Gradient at each geome   R   N=           9
  7.84149838E-16 -3.90312782E-16 -4.29067409E-04  2.43970401E-17 -1.52876905E-04
  2.14533704E-04 -8.08546878E-16  1.52876905E-04  2.14533704E-04
Optimization Number of geometries          I   N=           1
           1
ONIOM Charges                              I   N=          16
           0           0           0           0           0           0
           0           0           0           0           0           0
           0           0           0           0
ONIOM Multiplicities                       I   N=          16
           1           0           0           0           0           0
           0           0           0           0           0           0
           0           0           0           0
Atom Layers                                I   N=           3
           1           1           1
Atom Modifiers                             I   N=           3
           0           0           0
Force Field                                I                0
Int Atom Modified Types                    I   N=           3
           0           0           0
Link Atoms                                 I   N=           3
           0           0           0
Atom Modified MM Charges                   R   N=           3
  0.00000000E+00  0.00000000E+00  0.00000000E+00
Link Distances                             R   N=          12
  0.00000000E+00  0.00000000E+00  0.00000000E+00  0.00000000E+00  0.00000000E+00
  0.00000000E+00  0.00000000E+00  0.00000000E+00  0.00000000E+00  0.00000000E+00
  0.00000000E+00  0.00000000E+00
Cartesian Gradient                         R   N=           9
  7.84149838E-16 -3.90312782E-16 -4.29067409E-04  2.43970401E-17 -1.52876905E-04
  2.14533704E-04 -8.08546878E-16  1.52876905E-04  2.14533704E-04
Cartesian Force Constants                  R   N=          45
 -4.25554105E-04 -6.36701321E-16  8.27062726E-01 -5.52526265E-16  2.52402266E-16
  4.39029137E-01  2.12777054E-04  2.72685767E-17 -4.26679266E-18 -1.57899717E-04
 -7.72474654E-17 -4.13531363E-01  2.05846948E-01 -1.08401677E-17  4.44497165E-01
  6.40139699E-17  2.81119436E-01 -2.19514568E-01  7.31306930E-18 -2.43483192E-01
  2.05209406E-01  2.12777054E-04  6.40574804E-16  4.67647101E-16 -5.48773372E-05
  3.09079578E-17 -2.65387891E-17 -1.57899717E-04  6.36870460E-16 -4.13531363E-01
 -2.05846948E-01  3.46092249E-17 -3.09658019E-02 -3.76362441E-02 -6.45442069E-16
  4.44497165E-01  4.10353014E-16 -2.81119436E-01 -2.19514568E-01  3.07521419E-17
  3.76362441E-02  1.43051622E-02 -3.96747449E-16  2.43483192E-01  2.05209406E-01
Dipole Moment                              R   N=           3
 -6.76664117E-17 -1.38777878E-16 -9.83261355E-01
Dipole Derivatives                         R   N=          27
 -9.75213048E-01  1.33146079E-15  7.62555595E-16 -5.47135557E-17 -5.50448499E-01
 -1.00613962E-16 -2.29647631E-17 -1.04083409E-16 -4.45446880E-01  4.87606524E-01
  9.25982572E-17  1.06366061E-16 -5.95846304E-18  2.75224249E-01  9.72794086E-02
 -7.44962185E-18  1.44303643E-01  2.22723440E-01  4.87606524E-01 -5.93733229E-16
 -4.52442119E-16  7.12424365E-17  2.75224249E-01 -9.72794086E-02  4.78814942E-17
 -1.44303643E-01  2.22723440E-01
Polarizability                             R   N=           6
  1.41419194E+00  3.34547018E-16  6.62944589E+00  2.12358165E-16 -2.77555756E-16
  3.83582917E+00
Polarizability Derivatives                 R   N=          54
  9.03139041E-16  5.55641828E-17  1.94943938E-14  2.40181536E+00  1.32815357E-14
  9.85916564E-15 -4.55470530E-16  6.94026964E-16 -3.51262954E-15  4.72994791E-16
  4.74499273E+00 -3.40896477E-15 -5.55985680E-01  5.88698888E-16  5.84524264E+00
  4.89966678E-16 -1.85514301E-15  6.18735995E+00 -1.52220989E-16  1.75725596E+00
  1.99313957E-15 -1.20090768E+00  9.22927393E-16  4.13665597E-17 -3.51792429E-01
  1.37730823E-16  5.48460988E+00 -3.46781136E-17 -2.37249636E+00  7.76346107E-01
  2.77992840E-01 -1.24080559E-16 -2.92262132E+00  1.81797727E-17  2.55329465E+00
 -3.09367997E+00 -5.27981688E-16 -1.75725596E+00 -1.26639954E-14 -1.20090768E+00
 -6.96576902E-15 -4.66122289E-15  3.51792429E-01 -1.60474216E-16 -5.48460988E+00
  5.56053277E-17 -2.37249636E+00 -7.76346107E-01  2.77992840E-01  1.47383296E-16
 -2.92262132E+00 -1.01150759E-16 -2.55329465E+00 -3.09367997E+00
HyperPolarizability                        R   N=          10
 -7.02609007E-17 -7.25316229E-17 -1.66224372E-15  4.02548468E-15 -1.10549501E+00
 -1.35178538E-15 -2.20978772E+01 -7.74407104E-16  1.14761180E-15 -1.21162215E+01
QEq coupling tensors                       R   N=          18
  1.90603237E+00  5.95491900E-17 -1.85608302E+00  3.97152094E-17  0.00000000E+00
 -4.99493484E-02  3.13838037E-01 -1.25042986E-18 -3.32665445E-01  2.44472046E-19
  3.70656341E-01  1.88274074E-02  3.13838037E-01 -1.19903141E-16 -3.32665445E-01
 -8.02103531E-17 -3.70656341E-01  1.88274074E-02
Number of Normal Modes                     I                3
Vib-NDFDPol                                I                0
Vib-NumROA                                 I                0
Vib-NDim                                   I                3
Vib-NDim0                                  I                3
Vib-AtMass                                 R   N=           3
  1.59949146E+01  1.00782504E+00  1.00782504E+00
Vib-E2                                     R   N=          42
  1.73540624E+03  3.99194073E+03  4.14946567E+03  1.09156376E+00  1.03701575E+00
  1.08880095E+00  1.93687496E+00  9.73651832E+00  1.10454396E+01  1.23390372E+02
  2.97960043E+00  5.46931647E+01  1.05976943E+01  9.00121935E+01  3.99630592E+01
  3.95839700E-01  2.17916123E-01  7.50000000E-01  5.67170714E-01  3.57850790E-01
  8.57142857E-01  0.00000000E+00  0.00000000E+00  0.00000000E+00  0.00000000E+00
  0.00000000E+00  0.00000000E+00  1.00000000E+02  1.00000000E+02  1.00000000E+02
  0.00000000E+00  0.00000000E+00  0.00000000E+00  0.00000000E+00  0.00000000E+00
  0.00000000E+00  0.00000000E+00  0.00000000E+00  0.00000000E+00  0.00000000E+00
  0.00000000E+00  0.00000000E+00
Vib-Modes                                  R   N=          27
  6.73637643E-18 -1.46675685E-17  7.47488485E-02 -7.68017751E-17 -3.81272120E-01
 -5.93159233E-01 -3.01094070E-17  3.81272120E-01 -5.93159233E-01  3.97727410E-18
 -3.15664287E-16  4.41330235E-02  6.00471581E-18  6.13496541E-01 -3.50211553E-01
 -6.91269417E-17 -6.13496541E-01 -3.50211553E-01 -4.50090781E-18 -7.35054028E-02
 -2.13868742E-16  0.00000000E+00  5.83292040E-01 -3.96319157E-01  7.14326730E-17
  5.83292040E-01  3.96319157E-01
