
 Primary working directories    : /home/allouche/tmp
 Secondary working directories  : /home/allouche/tmp
 Wavefunction directory         : /home/allouche/wfu/
 Main file repository           : /home/allouche/tmp/
 
 cpu       : Intel(R) Xeon(R) CPU E5-2609 0 @ 2.40GHz 1200.000 MHz
 FC        : /home/andy/intel/fc/10.1.008/bin/ifort
 FCVERSION : 10.1
 BLASLIB   : -L/home/andy/intel/mkl/9.1/lib/32 -lmkl_ia32 -lguide -lpthread -openmp
 id        : lasimuniv

 mxmblk=64; mxmbln=64; ncache=16384; mindgm=10; mindgv=32; mindgc=4; mindgl=1; mindgr=8; noblas=0; nroll=2; minvec=7
 default implementation of scratch files=df  

 memory,64,m
 expec,dm
 geomtyp=xyz
 geometry={
 nosym,
 3                                                                               ! number of atoms
 GeomXYZ
 H         0.748790   -0.462880    0.000000
 H        -0.748790   -0.462880    0.000000
 O         0.000000    0.115720    0.000000
 }
  
 basis=avtz
 df-hf,basis=avtz
 {df-lmp2,basis=avtz;polari,dm}

 Variables initialized (599), CPU time= 0.00 sec
 Commands  initialized (355), CPU time= 0.02 sec, 460 directives.
 Default parameters read. Elapsed time= 0.06 sec
 Checking input...
 Passed
1


                                         ***  PROGRAM SYSTEM MOLPRO  ***
                         Copyright, University College Cardiff Consultants Limited, 2004

                                    Version 2008.1 linked 05 Sep 2008 18:06:17


 **********************************************************************************************************************************
 LABEL *                                                                                 
 Linux-3.16.0-4-amd64/ilmfixe086(x86_64) 32 bit version                                  DATE:  25-Jul-16         TIME: 16:31:18  
 **********************************************************************************************************************************

 Patch level:      5
 **********************************************************************************************************************************
 SETTING GEOMTYP        =    XYZ

 Variable memory set to   64000000 words,  buffer space   230000 words
 
 SETTING BASIS          =    AVTZ


 Recomputing integrals since basis changed


 Using spherical harmonics

 Library entry H      S aug-cc-pVTZ          selected for orbital group  1
 Library entry H      P aug-cc-pVTZ          selected for orbital group  1
 Library entry H      D aug-cc-pVTZ          selected for orbital group  1
 Library entry O      S aug-cc-pVTZ          selected for orbital group  2
 Library entry O      P aug-cc-pVTZ          selected for orbital group  2
 Library entry O      D aug-cc-pVTZ          selected for orbital group  2
 Library entry O      F aug-cc-pVTZ          selected for orbital group  2

1PROGRAM * SEWARD (Integral evaluation for generally contracted gaussian basis sets)     Author: Roland Lindh, 1990

 Geometry written to block  1 of record 700


 Point group  C1  



 ATOMIC COORDINATES

 NR  ATOM    CHARGE       X              Y              Z

   1  H       1.00    1.415008030   -0.874716432    0.000000000
   2  H       1.00   -1.415008030   -0.874716432    0.000000000
   3  O       8.00    0.000000000    0.218679108    0.000000000

 Bond lengths in Bohr (Angstrom)

 1-3  1.788228601  2-3  1.788228601
     (0.946289820)     (0.946289820)

 Bond angles

  1-3-2  104.61252083

 NUCLEAR CHARGE:                   10
 NUMBER OF PRIMITIVE AOS:         121
 NUMBER OF SYMMETRY AOS:          108
 NUMBER OF CONTRACTIONS:           92   (  92A   )
 NUMBER OF CORE ORBITALS:           1   (   1A   )
 NUMBER OF VALENCE ORBITALS:        6   (   6A   )


 NUCLEAR REPULSION ENERGY    9.30075679

 EXTRA SYMMETRY OF AOS IN SYMMETRY 1:   1 1 1 1 1 1 2 1 1 2   1 1 2 1 1 2 1 2 1 1   2 1 2 1 1 1 1 1 1 2   1 1 2 1 1 2 1 1 2 1
                                        2 1 1 2 1 2 1 1 1 1   1 1 1 2 1 1 2 1 1 2   1 1 2 1 1 2 1 2 1 1   2 1 2 1 1 2 1 2 1 1
                                        2 1 2 1 2 1 1 2 1 2   1 2

 Eigenvalues of metric

         1 0.377E-03 0.379E-03 0.162E-02 0.183E-02 0.306E-02 0.483E-02 0.534E-02 0.578E-02
 

 OPERATOR DM      FOR CENTER  0  COORDINATES:    0.000000    0.000000    0.000000


 **********************************************************************************************************************************
 DATASETS  * FILE   NREC   LENGTH (MB)   RECORD NAMES
              1      18        1.59       500      610      700      900      950      970     1000      129      960     1100   
                                          VAR    BASINP    GEOM    SYMINP    ZMAT    AOBASIS   BASIS     P2S    ABASIS      S 
                                         1400     1410     1200     1210     1080     1600     1650     1700   
                                           T        V       H0       H01     AOSYM     SMH    MOLCAS    OPER   
 
 PROGRAMS   *        TOTAL       INT
 CPU TIMES  *         0.16      0.02
 REAL TIME  *         0.18 SEC
 DISK USED  *         1.96 MB      
 **********************************************************************************************************************************

1PROGRAM * RHF-SCF (CLOSED SHELL)       Authors: W. Meyer, H.-J. Werner


 NUMBER OF ELECTRONS:       5+    5-
 CONVERGENCE THRESHOLDS:    1.00E-05 (Density)    1.00E-07 (Energy)
 INTEGRAL THRESHOLDS:       1.00E-11 (Initial)    1.00E-11 (Final)
 MAX. NUMBER OF ITERATIONS:       60
 INTERPOLATION TYPE:            DIIS
 INTERPOLATION STEPS:              2 (START)      1 (STEP)
 LEVEL SHIFTS:                  0.00 (CLOSED)  0.00 (OPEN) 



 Orbital guess generated from atomic densities.  Occupancy:    5
 
 Basis set AUG-CC-PVTZ-JKFI generated. Number of basis functions: 196 
 
 Coulomb and exchange fitting
 Thresholds for fitting:       THRAO_COUL= 1.0D-12    THRAO_EXCH= 1.0D-12    THRMO= 1.0D-11    THRPROD= 1.0D-11    THRASM= 1.0D-11
                               THR2HLF=    1.0D-11

 Molecular orbital dump at record        2100.2

 ITERATION   DDIFF            GRAD            ENERGY        2-EL.EN.            DIPOLE MOMENTS         DIIS   CPU(IT)  CPU(TOT)
    1      0.000D+00      0.000D+00       -76.02356700     77.804860   0.000000  -1.117209   0.000000    0      0.2      0.4   diag
    2      0.000D+00      0.658D-02       -76.05036802     74.274111   0.000000  -0.669036   0.000000    1      0.2      0.6   diag
    3      0.112D-01      0.405D-02       -76.06088280     75.811964   0.000000  -0.779602   0.000000    2      0.2      0.8   diag
    4      0.389D-02      0.378D-03       -76.06105851     75.724329   0.000000  -0.776920   0.000000    3      0.2      0.9   diag
    5      0.507D-03      0.993D-04       -76.06107467     75.737412   0.000000  -0.775952   0.000000    4      0.2      1.1   diag
    6      0.147D-03      0.181D-04       -76.06107553     75.736781   0.000000  -0.775891   0.000000    5      0.2      1.3   diag
    7      0.332D-04      0.335D-05       -76.06107557     75.736886   0.000000  -0.775827   0.000000    6      0.2      1.4   diag
    8      0.872D-05      0.104D-05       -76.06107557     75.736833   0.000000  -0.775805   0.000000    0      0.2      1.6   orth
 
 Final occupancy:   5
 
 !RHF STATE 1.1 Energy                -76.061075566911
 Nuclear energy                         9.30075679
 One-electron energy                 -123.23024882
 Two-electron energy                   37.86841646
 Virial quotient                       -1.00076388
 !RHF STATE 1.1 Dipole moment           0.00000000    -0.77580500     0.00000000
 Dipole moment /Debye                   0.00000000    -1.97177048     0.00000000

 Orbital energies:

         1.1          2.1          3.1          4.1          5.1          6.1          7.1
    -20.565196    -1.359288    -0.724113    -0.586851    -0.511261     0.029577     0.047719


 **********************************************************************************************************************************
 DATASETS  * FILE   NREC   LENGTH (MB)   RECORD NAMES
              1      19        1.59       500      610      700      900      950      970     1000      129      960     1100   
                                          VAR    BASINP    GEOM    SYMINP    ZMAT    AOBASIS   BASIS     P2S    ABASIS      S 
                                         1400     1410     1200     1210     1080     1600     1650     1700      960(1)
                                           T        V       H0       H01     AOSYM     SMH    MOLCAS    OPER    ABASIS    
 
              2       3        0.41       700     1000     2100   
                                         GEOM     BASIS     RHF  
 
 PROGRAMS   *        TOTAL        HF       INT
 CPU TIMES  *         1.76      1.60      0.02
 REAL TIME  *         1.99 SEC
 DISK USED  *         4.11 MB      
 **********************************************************************************************************************************


 Input parameters for LOCAL:

 LOCAL =   -1.000000

1PROGRAM * MP2 (Closed-shell)     Authors: C. Hampel, H.-J. Werner, 1991, M. Deegan, P.J. Knowles, 1992,  U. Schumann, 2001

                              Local implementation by C. Hampel and H.-J. Werner, 1996
                                    M. Schuetz, G. Hetzer, and H.-J. Werner, 1999
 
 Basis set AUG-CC-PVTZ-MP2F generated. Number of basis functions: 198 

 Convergence thresholds:  THRVAR = 1.00D-10  THRDEN = 1.00D-06

 Number of core orbitals:           1 (   1 )
 Number of closed-shell orbitals:   4 (   4 )
 Number of external orbitals:      87 (  87 )
 
 Molecular orbitals read from record     2100.2  Type=RHF/CANONICAL (state 1.1)

 Local correlation treatment
 ===========================

 LOCAL=4  IBASO=0  NONORM=2  IDLCOR=2  KEEPCORE=1  SKIPD=3  LOCSNG=0  LOCMUL=0  CANBLK=0  SHELLPERM=F

 Thresholds:

 THRLOC= 1.00D-06 (Smallest allowed eigenvalue in domain redundancy check)
 THRGAP= 1.00D-06 (Minimum eigenvalue gap in domain redundancy check)
 THRLOCT=1.00D-06 (Smallest allowed eigenvalue in domain redundancy check of triples)
 THRGAPT=1.00D-06 (Minimum eigenvalue gap in domain redundancy check of triples)
 THRORB= 1.00D-06 (Norm of projected orbitals)
 THRMP2= 1.00D-08 (Neglect of small Fock matrix elements)

 Orbital domain selection criteria:

 CHGFRAC=  0.985   CHGMIN=   0.010   CHGMINH=  0.030   CHGMAX=  0.500   CHGMIN_PAIRS=  0.200    MERGEDOM=0   CANBLK=0

 Weak and distant pair selection criteria:

 RCLOSE= 1.000   RWEAK= 3.000   RDIST= 8.000   RVDIST=15.000   KEEPCLS=0   MP4CLS=0

 Pipek-Mezey localisation finished (npass=  7  nrot=     33  Thresh=  0.10D-08  CPU=   0.00 sec)

 Ordering localized MOs according to charge centroids

 Generating projected atomic orbitals
 
 Deleting projected core orbital   47.1 (O 1s)    Norm=  0.14D-02

 Ranking of atoms according to Loewdin charges

 Orbital domains

   Orb.   Atom     Charge      Crit.
   2.1    3 O       1.27       0.000
          2 H       0.52       1.000
   3.1    3 O       1.57       1.000
   4.1    3 O       1.35       1.000
   5.1    3 O       1.27       0.000
          1 H       0.52       1.000

 Number of strong pairs:          10

 Average pair domain sizes:       64    (strong pairs:  64, close pairs:   0, weak pairs:   0, distant pairs:   0)
 Number of redundant orbitals:    14

 Largest S-eigenvalue of redundant functions:  0.6491D-15   Pair:   8  Symmetry: 1
 Smallest S-eigenvalue of domains              0.2815D-04   Pair:   4  Symmetry: 1

 United MP2 domains:   min:   92  max:   92  average:   92

 CPU-time for pair domains:             0.04 SEC

 Number of orbital pairs:                        10
 Number of operators K(kl):                      10
 Number of operators J(kl):                      10

 icfit_3ext= 0  icfit_4ext= 0
 locfit_ccsd=0  locfit_2ext=0  locfit_3ext=0  locfit_4ext=0  locfit=0

 Number of correlated orbitals:                  4
 Number of strong pair functions:               10
 Total number of pair functions:                10
 Number of singly external local CSFs:         230
 Number of doubly external local CSFs:       36616 (all pairs)     36616 (strong pairs)         0 (weak pairs)
 Total number of local CSFs:                 36847 (all pairs)     36847 (strong pairs)

 Length of J-op  integral file:               0.16 MB
 Length of K-op  integral file:               1.15 MB
 
 DF-basis AUG-CC-PVTZ-MP2F loaded. Number of functions:     198
 AO-basis ORBITAL          loaded. Number of functions:      92

 Entering DF-transformation

 Thresholds:    THRAO= 0.100D-09    THRMO= 0.100D-08    THROV= 0.100D-11    THRPROD= 0.100D-08    THRPSWP= 0.100D-04
 
 Time for fit domains                     0.00 sec
 Time for gaussian products               0.00 sec

 Sparse=T  Dscreen=F  Kscreen=F  Lscreen=0

 Minimum memory with paging:              1.80 MW
 Minimum memory for incore algorithm:     1.86 MW
 Memory for 3-index integrals:            0.16 MW

 Disk space for H1-integrals:             0.59 MB (   1 records)
 Time for first pass                      0.08 sec

 Number of batches for half transformed integrals:    1
 Number of batches for fully transformed integrals:   1
 
 Time for 2-index integrals               0.02 sec
 Time for 3-index integrals               0.08 sec
 Time for first half transformation       0.00 sec (1340.7 MFLOP/sec)    Sparsity used:   0.0%
 Time for second half transformation      0.00 sec (1340.7 MFLOP/sec)    Sparsity used:   0.0%
 Time for LU-decomposition                0.00 sec
 Time for solving equations               0.02 sec (1442.7 MFLOP/sec)
 Time for assembly                        0.00 sec (1717.8 MFLOP/sec)
 Total time                               0.12 sec

 Total number of 3-index integrals:          1675872.
 Number of stored 3-index integrals:         1675872. (100.00%)
 Number of computed 3-index integrals:       1675872. (100.00%)
 Number of significant 3-index integrals:    1675872. (100.00%)
 Number of half-transformed integrals:         72864. (100.00%)
 Number of transformed integrals:              72864. (100.00%)

 Minimum memory for LMP2:      0.15 MW, used:      0.21 MW

 Threshold for neglect of couplings:    0.10D-07     LMP2ALGO= 3   DYNAMIC=1  LIIS=0

 ITER.      SQ.NORM    CORR.ENERGY   TOTAL ENERGY   ENERGY CHANGE      VAR         THR       CPU         
   1      1.05833817    -0.26040022   -76.32147579    -0.26040022    0.58D-01    0.10D-04     0.00
   2      1.06134912    -0.26445010   -76.32552567    -0.00404989    0.74D-03    0.10D-04     0.02
   3      1.06243548    -0.26611250   -76.32718806    -0.00166239    0.20D-04    0.10D-04     0.02
   4      1.06244974    -0.26612699   -76.32720255    -0.00001449    0.62D-07    0.10D-06     0.04
   5      1.06244985    -0.26612693   -76.32720250     0.00000006    0.36D-09    0.10D-07     0.06
   6      1.06244996    -0.26612705   -76.32720262    -0.00000012    0.72D-11    0.10D-07     0.06

 Computing Hylleraas functional

   7      1.06244996    -0.26612707   -76.32720264    -0.00000002    0.00D+00    0.10D-07     0.08

 CPU TIME FOR ITERATIVE MP2:    0.08 SEC

 SCS-LMP2 correlation energy:          -0.263173836755   (PS=  1.200000  PT=  0.333333)
 SCS-LMP2 total energy:               -76.324249403666
 
 LMP2 singlet pair energy              -0.168894796859
 LMP2 triplet pair energy              -0.097232272271

 Reference energy                     -76.061075566911
 Correlation energy                    -0.266127069130

 !LMP2 Energy                         -76.327202636041
 NBatch in kexthalf=  1
 CPU time for read in KEH :                       0.00 sec, Elapsed time=      0.00 sec
 CPU time for tran in KEH :                       0.00 sec, Elapsed time=      0.00 sec
 CPU time for mxma in KEH :                       0.00 sec, Elapsed time=      0.00 sec
 CPU time for accu in KEH :                       0.00 sec, Elapsed time=      0.00 sec
 CPU time for max and write in KEH :              0.00 sec, Elapsed time=      0.01 sec
 CPU time for sort in KEH :                       0.00 sec, Elapsed time=      0.00 sec
 Time for making Fock matrix (overall):      0.36 sec

 Solving coupled perturbed localization equations

 Number of orbital parameters:                  6
 Norm of right-hand side:                  0.1447D-03
 Gradient of localization functional:      0.3966D-10

 Solving CPL equations. Requested accuracy=  0.10D-05

 ITER      GRAD        VAR
   1    0.20D-03    0.12D-03
   2    0.26D-05    0.16D-05
   3    0.34D-07    0.20D-07
 
 Time for CPL C-matrix:                      0.00 sec
 Time for CPL solve:                         0.00 sec
 Time for CPL (total):                       0.00 sec

 Thresholds used in cphf: THRAO= 1.0D-10, THRMO= 1.0D-09, THROV= 1.0D-12, THRSW= 1.0D-10, THRPROD= 1.0D-09

 Starting Coupled-perturbed Hartree-Fock, convergence threshold= 1.0D-06, integral threshold= 1.0D-11

 ITER   MIC  DIIS      VAR         VARC       CPU
   1     0     1    0.29D-01    0.10D-02     0.34
   2     0     2    0.97D-02    0.13D-03     0.50
   3     0     3    0.39D-02    0.74D-04     0.64
   4     0     4    0.69D-03    0.10D-04     0.78
   5     0     5    0.92D-04    0.27D-05     0.92
   6     0     6    0.28D-04    0.41D-06     1.08
   7     0     6    0.70D-05    0.94D-07     1.22
   8     0     6    0.14D-05    0.33D-07     1.36
   9     0     6    0.32D-06    0.33D-08     1.50

 CPHF convergence reached in  9 macroiterations and    0 microiterations.   Accuracy: 3.2331D-07

 CPHF solution written to record  4101.2

 Dipole moments (unrelaxed):            0.00000000    -0.76067137     0.00000000
 Orbital relaxation contribution:      -0.00000002     0.03323166     0.00000000
 !LMP2 dipole moments:                 -0.00000002    -0.72743971     0.00000000
 
 CPU-time for density and lagrangian:                  0.40 sec
 CPU-time for coupled-perturbed hartree-fock:          1.50 sec


 **********************************************************************************************************************************
 DATASETS  * FILE   NREC   LENGTH (MB)   RECORD NAMES
              1      22        2.36       500      610      700      900      950      970     1000      129      960     1100   
                                          VAR    BASINP    GEOM    SYMINP    ZMAT    AOBASIS   BASIS     P2S    ABASIS      S 
                                         1400     1410     1200     1210     1080     1600     1650     1700      960(1)  2541   
                                           T        V       H0       H01     AOSYM     SMH    MOLCAS    OPER    ABASIS   FC_mu_i    
                                         2542     2547   
                                        FC_j_i    grad   
 
              2       5        0.69       700     1000     2100     4100     4101   
                                         GEOM     BASIS     RHF     CPHF     CPHF   
 
 PROGRAMS   *        TOTAL      LMP2        HF       INT
 CPU TIMES  *         5.54      3.76      1.60      0.02
 REAL TIME  *         5.83 SEC
 DISK USED  *        10.16 MB      
 **********************************************************************************************************************************

        DF-LMP2         DF-HF   
    -76.32720264    -76.06107557
 **********************************************************************************************************************************
 Variable memory released
