begin
comment by runHNNP
atom   1.1627590111310000E+00  -8.8304140703499989E-01  -3.2734257013500001E-01  H   0.0000000000000000E+00   0.0000000000000000E+00  -2.0687170052355497E-03   7.2271052241984412E-03  -1.7326750717320445E-03
atom   2.8709827591400000E-01   1.8025744505519998E+00  -1.1790579302960000E+00  H   0.0000000000000000E+00   0.0000000000000000E+00  -4.7631922147166431E-04  -3.5360499846487136E-03  -2.0458405330192231E-03
atom   1.1258304392089997E+00   8.8978050226200001E-01   1.6233165519300000E-01  O   0.0000000000000000E+00   0.0000000000000000E+00   2.5450362267071961E-03  -3.6910552395497207E-03   3.7785156047512401E-03
energy  -7.6555605601918188E+01
charge   0.0000000000000000E+00
end
