 *******************************************************************************
 ** Site#: 1079         For non-commercial use only     Version 16.158L 64BITS**
 *******************************************************************************
 ** Cite this program as: MOPAC2016, Version: 16.158L, James J. P. Stewart,   **
 ** Stewart Computational Chemistry, web: HTTP://OpenMOPAC.net. Days left: 332**
 *******************************************************************************
 **                                                                           **
 **                                MOPAC2016                                  **
 **                                                                           **
 *******************************************************************************

                              PM3 CALCULATION RESULTS


 *******************************************************************************
 *  CALCULATION DONE:                                Sun Jul 10 17:26:20 2016  *
 *  PM3        - The PM3 Hamiltonian to be used
 *  SINGLET    - SPIN STATE DEFINED AS A SINGLET
 *
 *
 *
 *                 CHARGE ON SYSTEM = 0
 *
 *
 *
 *  1SCF       - DO 1 SCF AND THEN STOP 
 *  T=         - A TIME OF 172800.0 SECONDS REQUESTED
 *  DUMP=N     - RESTART FILE WRITTEN EVERY  7200.000 SECONDS
 *******************************************************************************
PM3 1SCF CHARGE=0 Singlet

 Mopac file generated by Gabedit
   ATOM   CHEMICAL          X               Y               Z
  NUMBER   SYMBOL      (ANGSTROMS)     (ANGSTROMS)     (ANGSTROMS)
 
     1       H          0.04296800  *  -0.89693600  *  -0.20053500  *
     2       H         -0.42108000  *   0.46953800  *  -0.66986400  *
     3       O          0.02382200  *   0.02692800  *   0.05483900  *
 


          CARTESIAN COORDINATES 

    NO.       ATOM         X         Y         Z

     1         H        0.0430   -0.8969   -0.2005
     2         H       -0.4211    0.4695   -0.6699
     3         O        0.0238    0.0269    0.0548

  H: (PM3): J. J. P. STEWART, J. COMP. CHEM. 10, 209 (1989).
  O: (PM3): J. J. P. STEWART, J. COMP. CHEM. 10, 209 (1989).

           Empirical Formula: H2 O  =     3 atoms



      MOLECULAR POINT GROUP   :   C2v 


 SINGLET STATE CALCULATION


      RHF CALCULATION, NO. OF DOUBLY OCCUPIED LEVELS = 4


 -------------------------------------------------------------------------------
PM3 1SCF CHARGE=0 Singlet

 Mopac file generated by Gabedit


     1SCF WAS SPECIFIED, SO BFGS WAS NOT USED                 
     SCF FIELD WAS ACHIEVED                                   


                              PM3 CALCULATION
                                                       MOPAC2016 (Version: 16.158L)
                                                       Sun Jul 10 17:26:20 2016
                                                       No. of days remaining = 332




          FINAL HEAT OF FORMATION =        -53.23904 KCAL/MOL =    -222.75214 KJ/MOL


          TOTAL ENERGY            =       -324.89896 EV
          ELECTRONIC ENERGY       =       -473.60152 EV  POINT GROUP:     C2v 
          CORE-CORE REPULSION     =        148.70256 EV
          COSMO AREA              =         42.47 SQUARE ANGSTROMS
          COSMO VOLUME            =         25.21 CUBIC ANGSTROMS

          IONIZATION POTENTIAL    =         12.331577 EV
          HOMO LUMO ENERGIES (EV) =        -12.332  4.065
          NO. OF FILLED LEVELS    =          4
          MOLECULAR WEIGHT        =         18.0152

          MOLECULAR DIMENSIONS (Angstroms)

            Atom       Atom       Distance
            H     2    H     1     1.51752
            O     3    H     1     0.58597
            O     3    H     1     0.00000


          SCF CALCULATIONS        =          1
 
          WALL-CLOCK TIME         =          0.016 SECONDS
          COMPUTATION TIME        =          0.016 SECONDS




   ATOM   CHEMICAL          X               Y               Z
  NUMBER   SYMBOL      (ANGSTROMS)     (ANGSTROMS)     (ANGSTROMS)
 
     1       H          0.04296800  *  -0.89693600  *  -0.20053500  *
     2       H         -0.42108000  *   0.46953800  *  -0.66986400  *
     3       O          0.02382200  *   0.02692800  *   0.05483900  *

                             CARTESIAN COORDINATES

   1    H        0.042968000    -0.896936000    -0.200535000
   2    H       -0.421080000     0.469538000    -0.669864000
   3    O        0.023822000     0.026928000     0.054839000


           Empirical Formula: H2 O  =     3 atoms



      MOLECULAR POINT GROUP   :   C2v 


                  EIGENVALUES  
 -36.70591 -17.40468 -14.66692 -12.33158   4.06503   5.16579


              NET ATOMIC CHARGES AND DIPOLE CONTRIBUTIONS

  ATOM NO.   TYPE          CHARGE      No. of ELECS.   s-Pop       p-Pop       
    1          H           0.175559        0.8244     0.82444
    2          H           0.175560        0.8244     0.82444
    3          O          -0.351119        6.3511     1.77165     4.57947
 DIPOLE           X         Y         Z       TOTAL
 POINT-CHG.    -0.359    -0.406    -0.826     0.988
 HYBRID        -0.281    -0.317    -0.647     0.773
 SUM           -0.640    -0.723    -1.473     1.761


          ATOMIC ORBITAL ELECTRON POPULATIONS

     Atom    s        px        py        pz   
    1  H   0.82444
    2  H   0.82444
    3  O   1.77165   1.84382   1.23782   1.49783

 **********************
 *                    *
 * JOB ENDED NORMALLY *
 *                    *
 **********************



 TOTAL JOB TIME:             0.02 SECONDS

 == MOPAC DONE ==
