 Entering Gaussian System, Link 0=/opt/local/Softwares/G09DSrc-Corr5/g09/g09
 Initial command:
 /opt/local/Softwares/G09DSrc-Corr5/g09/l1.exe "/tmp/allouche/2069/Gau-502.inp" -scrdir="/tmp/allouche/2069/"
 Entering Link 1 = /opt/local/Softwares/G09DSrc-Corr5/g09/l1.exe PID=       504.
  
 Copyright (c) 1988,1990,1992,1993,1995,1998,2003,2009,2013,
            Gaussian, Inc.  All Rights Reserved.
  
 This is part of the Gaussian(R) 09 program.  It is based on
 the Gaussian(R) 03 system (copyright 2003, Gaussian, Inc.),
 the Gaussian(R) 98 system (copyright 1998, Gaussian, Inc.),
 the Gaussian(R) 94 system (copyright 1995, Gaussian, Inc.),
 the Gaussian 92(TM) system (copyright 1992, Gaussian, Inc.),
 the Gaussian 90(TM) system (copyright 1990, Gaussian, Inc.),
 the Gaussian 88(TM) system (copyright 1988, Gaussian, Inc.),
 the Gaussian 86(TM) system (copyright 1986, Carnegie Mellon
 University), and the Gaussian 82(TM) system (copyright 1983,
 Carnegie Mellon University). Gaussian is a federally registered
 trademark of Gaussian, Inc.
  
 This software contains proprietary and confidential information,
 including trade secrets, belonging to Gaussian, Inc.
  
 This software is provided under written license and may be
 used, copied, transmitted, or stored only in accord with that
 written license.
  
 The following legend is applicable only to US Government
 contracts under FAR:
  
                    RESTRICTED RIGHTS LEGEND
  
 Use, reproduction and disclosure by the US Government is
 subject to restrictions as set forth in subparagraphs (a)
 and (c) of the Commercial Computer Software - Restricted
 Rights clause in FAR 52.227-19.
  
 Gaussian, Inc.
 340 Quinnipiac St., Bldg. 40, Wallingford CT 06492
  
  
 ---------------------------------------------------------------
 Warning -- This program may not be used in any manner that
 competes with the business of Gaussian, Inc. or will provide
 assistance to any competitor of Gaussian, Inc.  The licensee
 of this program is prohibited from giving any competitor of
 Gaussian, Inc. access to this program.  By using this program,
 the user acknowledges that Gaussian, Inc. is engaged in the
 business of creating and licensing software in the field of
 computational chemistry and represents and warrants to the
 licensee that it is not a competitor of Gaussian, Inc. and that
 it will not use this program in any manner prohibited above.
 ---------------------------------------------------------------
  

 Cite this work as:
 Gaussian 09, Revision D.01,
 M. J. Frisch, G. W. Trucks, H. B. Schlegel, G. E. Scuseria, 
 M. A. Robb, J. R. Cheeseman, G. Scalmani, V. Barone, B. Mennucci, 
 G. A. Petersson, H. Nakatsuji, M. Caricato, X. Li, H. P. Hratchian, 
 A. F. Izmaylov, J. Bloino, G. Zheng, J. L. Sonnenberg, M. Hada, 
 M. Ehara, K. Toyota, R. Fukuda, J. Hasegawa, M. Ishida, T. Nakajima, 
 Y. Honda, O. Kitao, H. Nakai, T. Vreven, J. A. Montgomery, Jr., 
 J. E. Peralta, F. Ogliaro, M. Bearpark, J. J. Heyd, E. Brothers, 
 K. N. Kudin, V. N. Staroverov, T. Keith, R. Kobayashi, J. Normand, 
 K. Raghavachari, A. Rendell, J. C. Burant, S. S. Iyengar, J. Tomasi, 
 M. Cossi, N. Rega, J. M. Millam, M. Klene, J. E. Knox, J. B. Cross, 
 V. Bakken, C. Adamo, J. Jaramillo, R. Gomperts, R. E. Stratmann, 
 O. Yazyev, A. J. Austin, R. Cammi, C. Pomelli, J. W. Ochterski, 
 R. L. Martin, K. Morokuma, V. G. Zakrzewski, G. A. Voth, 
 P. Salvador, J. J. Dannenberg, S. Dapprich, A. D. Daniels, 
 O. Farkas, J. B. Foresman, J. V. Ortiz, J. Cioslowski, 
 and D. J. Fox, Gaussian, Inc., Wallingford CT, 2013.
 
 ******************************************
 Gaussian 09:  EM64L-G09RevD.01 24-Apr-2013
                14-Feb-2018 
 ******************************************
 -----------------------
 # BLYP/6-31G** Opt Freq
 -----------------------
 1/14=-1,18=20,19=15,26=3,38=1/1,3;
 2/9=110,12=2,17=6,18=5,40=1/2;
 3/5=1,6=6,7=101,11=2,16=1,25=1,30=1,71=1,74=402/1,2,3;
 4//1;
 5/5=2,38=5/2;
 6/7=2,8=2,9=2,10=2,28=1/1;
 7//1,2,3,16;
 1/14=-1,18=20,19=15,26=3/3(2);
 2/9=110/2;
 99//99;
 2/9=110/2;
 3/5=1,6=6,7=101,11=2,16=1,25=1,30=1,71=1,74=402/1,2,3;
 4/5=5,16=3,69=1/1;
 5/5=2,38=5/2;
 7//1,2,3,16;
 1/14=-1,18=20,19=15,26=3/3(-5);
 2/9=110/2;
 6/7=2,8=2,9=2,10=2,19=2,28=1/1;
 99/9=1/99;
 ---------------------------------
 Gaussian file generated by cchemi
 ---------------------------------
 Symbolic Z-matrix:
 Charge =  0 Multiplicity = 1
 C                     0.        0.        0. 
 O                     0.        0.        1.16 
 

 GradGradGradGradGradGradGradGradGradGradGradGradGradGradGradGradGradGrad
 Berny optimization.
 Initialization pass.
                           ----------------------------
                           !    Initial Parameters    !
                           ! (Angstroms and Degrees)  !
 --------------------------                            --------------------------
 ! Name  Definition              Value          Derivative Info.                !
 --------------------------------------------------------------------------------
 ! R1    R(1,2)                  1.16           estimate D2E/DX2                !
 --------------------------------------------------------------------------------
 Trust Radius=3.00D-01 FncErr=1.00D-07 GrdErr=1.00D-06
 Number of steps in this run=     20 maximum allowed number of steps=    100.
 GradGradGradGradGradGradGradGradGradGradGradGradGradGradGradGradGradGrad

                          Input orientation:                          
 ---------------------------------------------------------------------
 Center     Atomic      Atomic             Coordinates (Angstroms)
 Number     Number       Type             X           Y           Z
 ---------------------------------------------------------------------
      1          6           0        0.000000    0.000000    0.000000
      2          8           0        0.000000    0.000000    1.160000
 ---------------------------------------------------------------------
 Stoichiometry    CO
 Framework group  C*V[C*(CO)]
 Deg. of freedom     1
 Full point group                 C*V     NOp   4
 Largest Abelian subgroup         C2V     NOp   4
 Largest concise Abelian subgroup C1      NOp   1
                         Standard orientation:                         
 ---------------------------------------------------------------------
 Center     Atomic      Atomic             Coordinates (Angstroms)
 Number     Number       Type             X           Y           Z
 ---------------------------------------------------------------------
      1          6           0        0.000000    0.000000   -0.662857
      2          8           0        0.000000    0.000000    0.497143
 ---------------------------------------------------------------------
 Rotational constants (GHZ):      0.0000000     54.7793901     54.7793901
 Standard basis: 6-31G(d,p) (6D, 7F)
 There are    16 symmetry adapted cartesian basis functions of A1  symmetry.
 There are     2 symmetry adapted cartesian basis functions of A2  symmetry.
 There are     6 symmetry adapted cartesian basis functions of B1  symmetry.
 There are     6 symmetry adapted cartesian basis functions of B2  symmetry.
 There are    16 symmetry adapted basis functions of A1  symmetry.
 There are     2 symmetry adapted basis functions of A2  symmetry.
 There are     6 symmetry adapted basis functions of B1  symmetry.
 There are     6 symmetry adapted basis functions of B2  symmetry.
    30 basis functions,    56 primitive gaussians,    30 cartesian basis functions
     7 alpha electrons        7 beta electrons
       nuclear repulsion energy        21.8969879417 Hartrees.
 NAtoms=    2 NActive=    2 NUniq=    2 SFac= 1.00D+00 NAtFMM=   60 NAOKFM=F Big=F
 Integral buffers will be    131072 words long.
 Raffenetti 2 integral format.
 Two-electron integral symmetry is turned on.
 One-electron integrals computed using PRISM.
 NBasis=    30 RedAO= T EigKep=  1.67D-02  NBF=    16     2     6     6
 NBsUse=    30 1.00D-06 EigRej= -1.00D+00 NBFU=    16     2     6     6
 ExpMin= 1.69D-01 ExpMax= 5.48D+03 ExpMxC= 8.25D+02 IAcc=1 IRadAn=         1 AccDes= 0.00D+00
 Harris functional with IExCor=  402 and IRadAn=       1 diagonalized for initial guess.
 HarFok:  IExCor=  402 AccDes= 0.00D+00 IRadAn=         1 IDoV= 1 UseB2=F ITyADJ=14
 ICtDFT=  3500011 ScaDFX=  1.000000  1.000000  1.000000  1.000000
 FoFCou: FMM=F IPFlag=           0 FMFlag=      100000 FMFlg1=           0
         NFxFlg=           0 DoJE=T BraDBF=F KetDBF=T FulRan=T
         wScrn=  0.000000 ICntrl=     500 IOpCl=  0 I1Cent=   200000004 NGrid=           0
         NMat0=    1 NMatS0=      1 NMatT0=    0 NMatD0=    1 NMtDS0=    0 NMtDT0=    0
 Petite list used in FoFCou.
 Initial guess orbital symmetries:
       Occupied  (SG) (SG) (SG) (SG) (PI) (PI) (SG)
       Virtual   (PI) (PI) (SG) (PI) (PI) (SG) (SG) (SG) (PI) (PI)
                 (SG) (DLTA) (DLTA) (PI) (PI) (DLTA) (DLTA) (SG)
                 (PI) (PI) (SG) (SG) (SG)
 The electronic state of the initial guess is 1-SG.
 Keep J ints in memory in symmetry-blocked form, NReq=991851.
 Requested convergence on RMS density matrix=1.00D-08 within 128 cycles.
 Requested convergence on MAX density matrix=1.00D-06.
 Requested convergence on             energy=1.00D-06.
 No special actions if energy rises.
 Integral accuracy reduced to 1.0D-05 until final iterations.
 Initial convergence to 1.0D-05 achieved.  Increase integral accuracy.
 SCF Done:  E(RB-LYP) =  -113.293796790     A.U. after   12 cycles
            NFock= 12  Conv=0.61D-08     -V/T= 2.0094

 **********************************************************************

            Population analysis using the SCF density.

 **********************************************************************

 Orbital symmetries:
       Occupied  (SG) (SG) (SG) (SG) (PI) (PI) (SG)
       Virtual   (PI) (PI) (SG) (PI) (PI) (SG) (SG) (SG) (PI) (PI)
                 (SG) (DLTA) (DLTA) (PI) (PI) (DLTA) (DLTA) (SG)
                 (PI) (PI) (SG) (SG) (SG)
 The electronic state is 1-SG.
 Alpha  occ. eigenvalues --  -18.90273 -10.03901  -1.04115  -0.49741  -0.40356
 Alpha  occ. eigenvalues --   -0.40356  -0.31356
 Alpha virt. eigenvalues --   -0.06042  -0.06042   0.23535   0.47402   0.47402
 Alpha virt. eigenvalues --    0.54214   0.66425   0.75250   0.85973   0.85973
 Alpha virt. eigenvalues --    1.31895   1.43514   1.43515   1.46834   1.46834
 Alpha virt. eigenvalues --    1.86916   1.86917   2.28092   2.50690   2.50690
 Alpha virt. eigenvalues --    2.83897   3.56400   3.81212
          Condensed to atoms (all electrons):
               1          2
     1  C    5.298448   0.543758
     2  O    0.543758   7.614035
 Mulliken charges:
               1
     1  C    0.157793
     2  O   -0.157793
 Sum of Mulliken charges =   0.00000
 Mulliken charges with hydrogens summed into heavy atoms:
               1
     1  C    0.157793
     2  O   -0.157793
 Electronic spatial extent (au):  <R**2>=             40.0962
 Charge=             -0.00000000000003 electrons
 Dipole moment (field-independent basis, Debye):
    X=              0.00000000000000    Y=              0.00000000000000    Z=              0.11642048627040  Tot=              0.11642048627040
 Quadrupole moment (field-independent basis, Debye-Ang):
   XX=             -9.91425784430894   YY=             -9.91425784430893   ZZ=            -11.94275110914974
   XY=              0.00000000000000   XZ=              0.00000000000000   YZ=              0.00000000000000
 Traceless Quadrupole moment (field-independent basis, Debye-Ang):
   XX=              0.67616442161360   YY=              0.67616442161361   ZZ=             -1.35232884322721
   XY=              0.00000000000000   XZ=              0.00000000000000   YZ=              0.00000000000000
 Octapole moment (field-independent basis, Debye-Ang**2):
  XXX=              0.00000000000000  YYY=              0.00000000000000  ZZZ=              5.82756188496905  XYY=              0.00000000000000
  XXY=              0.00000000000000  XXZ=              1.13404918317873  XZZ=              0.00000000000000  YZZ=              0.00000000000000
  YYZ=              1.13404918317873  XYZ=              0.00000000000000
 Hexadecapole moment (field-independent basis, Debye-Ang**3):
 XXXX=             -7.91498773319821 YYYY=             -7.91498773319820 ZZZZ=            -35.18769475514211 XXXY=              0.00000000000000
 XXXZ=              0.00000000000000 YYYX=              0.00000000000000 YYYZ=              0.00000000000000 ZZZX=              0.00000000000000
 ZZZY=              0.00000000000000 XXYY=             -2.63832924439940 XXZZ=             -6.65900396831968 YYZZ=             -6.65900396831967
 XXYZ=              0.00000000000000 YYXZ=              0.00000000000000 ZZXY=              0.00000000000000
 N-N= 2.189698794166D+01 E-N=-3.094519728901D+02  KE= 1.122416525469D+02
 Symmetry A1   KE= 1.041079582584D+02
 Symmetry A2   KE=-1.687307308039D-50
 Symmetry B1   KE= 4.066847144228D+00
 Symmetry B2   KE= 4.066847144228D+00
 Calling FoFJK, ICntrl=      2527 FMM=F ISym2X=1 I1Cent= 0 IOpClX= 0 NMat=1 NMatS=1 NMatT=0.
 ***** Axes restored to original set *****
 -------------------------------------------------------------------
 Center     Atomic                   Forces (Hartrees/Bohr)
 Number     Number              X              Y              Z
 -------------------------------------------------------------------
      1        6           0.000000000    0.000000000    0.020042321
      2        8           0.000000000    0.000000000   -0.020042321
 -------------------------------------------------------------------
 Cartesian Forces:  Max     0.020042321 RMS     0.011571440

 GradGradGradGradGradGradGradGradGradGradGradGradGradGradGradGradGradGrad
 Berny optimization.
 FormGI is forming the generalized inverse of G from B-inverse, IUseBI=4.
 Internal  Forces:  Max     0.020042321 RMS     0.020042321
 Search for a local minimum.
 Step number   1 out of a maximum of   20
 All quantities printed in internal units (Hartrees-Bohrs-Radians)
 Mixed Optimization -- RFO/linear search
 Second derivative matrix not updated -- first step.
 The second derivative matrix:
                          R1
           R1           1.27794
 ITU=  0
     Eigenvalues ---    1.27794
 RFO step:  Lambda=-3.14253339D-04 EMin= 1.27793674D+00
 Linear search not attempted -- first point.
 Iteration  1 RMS(Cart)=  0.01108707 RMS(Int)=  0.00000000
 Iteration  2 RMS(Cart)=  0.00000000 RMS(Int)=  0.00000000
 ClnCor:  largest displacement from symmetrization is 0.00D+00 for atom     0.
 Variable       Old X    -DE/DX   Delta X   Delta X   Delta X     New X
                                 (Linear)    (Quad)   (Total)
    R1        2.19208  -0.02004   0.00000  -0.01568  -0.01568   2.17640
         Item               Value     Threshold  Converged?
 Maximum Force            0.020042     0.000450     NO 
 RMS     Force            0.020042     0.000300     NO 
 Maximum Displacement     0.007840     0.001800     NO 
 RMS     Displacement     0.011087     0.001200     NO 
 Predicted change in Energy=-1.571653D-04
 GradGradGradGradGradGradGradGradGradGradGradGradGradGradGradGradGradGrad

                          Input orientation:                          
 ---------------------------------------------------------------------
 Center     Atomic      Atomic             Coordinates (Angstroms)
 Number     Number       Type             X           Y           Z
 ---------------------------------------------------------------------
      1          6           0        0.000000    0.000000    0.004149
      2          8           0        0.000000    0.000000    1.155851
 ---------------------------------------------------------------------
 Stoichiometry    CO
 Framework group  C*V[C*(CO)]
 Deg. of freedom     1
 Full point group                 C*V     NOp   4
 Largest Abelian subgroup         C2V     NOp   4
 Largest concise Abelian subgroup C1      NOp   1
                         Standard orientation:                         
 ---------------------------------------------------------------------
 Center     Atomic      Atomic             Coordinates (Angstroms)
 Number     Number       Type             X           Y           Z
 ---------------------------------------------------------------------
      1          6           0        0.000000    0.000000   -0.658116
      2          8           0        0.000000    0.000000    0.493587
 ---------------------------------------------------------------------
 Rotational constants (GHZ):      0.0000000     55.5715290     55.5715290
 Standard basis: 6-31G(d,p) (6D, 7F)
 There are    16 symmetry adapted cartesian basis functions of A1  symmetry.
 There are     2 symmetry adapted cartesian basis functions of A2  symmetry.
 There are     6 symmetry adapted cartesian basis functions of B1  symmetry.
 There are     6 symmetry adapted cartesian basis functions of B2  symmetry.
 There are    16 symmetry adapted basis functions of A1  symmetry.
 There are     2 symmetry adapted basis functions of A2  symmetry.
 There are     6 symmetry adapted basis functions of B1  symmetry.
 There are     6 symmetry adapted basis functions of B2  symmetry.
    30 basis functions,    56 primitive gaussians,    30 cartesian basis functions
     7 alpha electrons        7 beta electrons
       nuclear repulsion energy        22.0547407066 Hartrees.
 NAtoms=    2 NActive=    2 NUniq=    2 SFac= 1.00D+00 NAtFMM=   60 NAOKFM=F Big=F
 Integral buffers will be    131072 words long.
 Raffenetti 2 integral format.
 Two-electron integral symmetry is turned on.
 One-electron integrals computed using PRISM.
 NBasis=    30 RedAO= T EigKep=  1.64D-02  NBF=    16     2     6     6
 NBsUse=    30 1.00D-06 EigRej= -1.00D+00 NBFU=    16     2     6     6
 Initial guess from the checkpoint file:  "/tmp/allouche/2069/Gau-504.chk"
 B after Tr=     0.000000    0.000000    0.000000
         Rot=    1.000000    0.000000    0.000000    0.000000 Ang=   0.00 deg.
 Initial guess orbital symmetries:
       Occupied  (SG) (SG) (SG) (SG) (PI) (PI) (SG)
       Virtual   (SG) (SG) (SG) (SG) (SG) (SG) (SG) (DLTA) (DLTA)
                 (SG) (SG) (DLTA) (DLTA) (PI) (PI) (PI) (PI) (PI)
                 (PI) (PI) (PI) (PI) (PI)
 Keep J ints in memory in symmetry-blocked form, NReq=991851.
 Requested convergence on RMS density matrix=1.00D-08 within 128 cycles.
 Requested convergence on MAX density matrix=1.00D-06.
 Requested convergence on             energy=1.00D-06.
 No special actions if energy rises.
 SCF Done:  E(RB-LYP) =  -113.293976325     A.U. after    8 cycles
            NFock=  8  Conv=0.22D-09     -V/T= 2.0091
 Calling FoFJK, ICntrl=      2527 FMM=F ISym2X=1 I1Cent= 0 IOpClX= 0 NMat=1 NMatS=1 NMatT=0.
 ***** Axes restored to original set *****
 -------------------------------------------------------------------
 Center     Atomic                   Forces (Hartrees/Bohr)
 Number     Number              X              Y              Z
 -------------------------------------------------------------------
      1        6           0.000000000    0.000000000    0.002686439
      2        8           0.000000000    0.000000000   -0.002686439
 -------------------------------------------------------------------
 Cartesian Forces:  Max     0.002686439 RMS     0.001551016

 GradGradGradGradGradGradGradGradGradGradGradGradGradGradGradGradGradGrad
 Berny optimization.
 Using GEDIIS/GDIIS optimizer.
 Internal  Forces:  Max     0.002686439 RMS     0.002686439
 Search for a local minimum.
 Step number   2 out of a maximum of   20
 All quantities printed in internal units (Hartrees-Bohrs-Radians)
 Mixed Optimization -- RFO/linear search
 Update second derivatives using D2CorX and points    1    2
 DE= -1.80D-04 DEPred=-1.57D-04 R= 1.14D+00
 TightC=F SS=  1.41D+00  RLast= 1.57D-02 DXNew= 5.0454D-01 4.7038D-02
 Trust test= 1.14D+00 RLast= 1.57D-02 DXMaxT set to 3.00D-01
 The second derivative matrix:
                          R1
           R1           1.10692
 ITU=  1  0
 Use linear search instead of GDIIS.
     Eigenvalues ---    1.10692
 RFO step:  Lambda= 0.00000000D+00 EMin= 1.10691637D+00
 Quartic linear search produced a step of  0.14964.
 Iteration  1 RMS(Cart)=  0.00165911 RMS(Int)=  0.00000000
 Iteration  2 RMS(Cart)=  0.00000000 RMS(Int)=  0.00000000
 ClnCor:  largest displacement from symmetrization is 0.00D+00 for atom     0.
 Variable       Old X    -DE/DX   Delta X   Delta X   Delta X     New X
                                 (Linear)    (Quad)   (Total)
    R1        2.17640  -0.00269  -0.00235   0.00000  -0.00235   2.17406
         Item               Value     Threshold  Converged?
 Maximum Force            0.002686     0.000450     NO 
 RMS     Force            0.002686     0.000300     NO 
 Maximum Displacement     0.001173     0.001800     YES
 RMS     Displacement     0.001659     0.001200     NO 
 Predicted change in Energy=-3.256340D-06
 GradGradGradGradGradGradGradGradGradGradGradGradGradGradGradGradGradGrad

                          Input orientation:                          
 ---------------------------------------------------------------------
 Center     Atomic      Atomic             Coordinates (Angstroms)
 Number     Number       Type             X           Y           Z
 ---------------------------------------------------------------------
      1          6           0        0.000000    0.000000    0.004769
      2          8           0        0.000000    0.000000    1.155231
 ---------------------------------------------------------------------
 Stoichiometry    CO
 Framework group  C*V[C*(CO)]
 Deg. of freedom     1
 Full point group                 C*V     NOp   4
 Largest Abelian subgroup         C2V     NOp   4
 Largest concise Abelian subgroup C1      NOp   1
                         Standard orientation:                         
 ---------------------------------------------------------------------
 Center     Atomic      Atomic             Coordinates (Angstroms)
 Number     Number       Type             X           Y           Z
 ---------------------------------------------------------------------
      1          6           0        0.000000    0.000000   -0.657406
      2          8           0        0.000000    0.000000    0.493055
 ---------------------------------------------------------------------
 Rotational constants (GHZ):      0.0000000     55.6915445     55.6915445
 Standard basis: 6-31G(d,p) (6D, 7F)
 There are    16 symmetry adapted cartesian basis functions of A1  symmetry.
 There are     2 symmetry adapted cartesian basis functions of A2  symmetry.
 There are     6 symmetry adapted cartesian basis functions of B1  symmetry.
 There are     6 symmetry adapted cartesian basis functions of B2  symmetry.
 There are    16 symmetry adapted basis functions of A1  symmetry.
 There are     2 symmetry adapted basis functions of A2  symmetry.
 There are     6 symmetry adapted basis functions of B1  symmetry.
 There are     6 symmetry adapted basis functions of B2  symmetry.
    30 basis functions,    56 primitive gaussians,    30 cartesian basis functions
     7 alpha electrons        7 beta electrons
       nuclear repulsion energy        22.0785432038 Hartrees.
 NAtoms=    2 NActive=    2 NUniq=    2 SFac= 1.00D+00 NAtFMM=   60 NAOKFM=F Big=F
 Integral buffers will be    131072 words long.
 Raffenetti 2 integral format.
 Two-electron integral symmetry is turned on.
 One-electron integrals computed using PRISM.
 NBasis=    30 RedAO= T EigKep=  1.64D-02  NBF=    16     2     6     6
 NBsUse=    30 1.00D-06 EigRej= -1.00D+00 NBFU=    16     2     6     6
 Initial guess from the checkpoint file:  "/tmp/allouche/2069/Gau-504.chk"
 B after Tr=     0.000000    0.000000    0.000000
         Rot=    1.000000    0.000000    0.000000    0.000000 Ang=   0.00 deg.
 Initial guess orbital symmetries:
       Occupied  (SG) (SG) (SG) (SG) (PI) (PI) (SG)
       Virtual   (SG) (SG) (SG) (SG) (SG) (SG) (SG) (DLTA) (DLTA)
                 (SG) (SG) (DLTA) (DLTA) (PI) (PI) (PI) (PI) (PI)
                 (PI) (PI) (PI) (PI) (PI)
 Keep J ints in memory in symmetry-blocked form, NReq=991851.
 Requested convergence on RMS density matrix=1.00D-08 within 128 cycles.
 Requested convergence on MAX density matrix=1.00D-06.
 Requested convergence on             energy=1.00D-06.
 No special actions if energy rises.
 SCF Done:  E(RB-LYP) =  -113.293979480     A.U. after    7 cycles
            NFock=  7  Conv=0.25D-08     -V/T= 2.0090
 Calling FoFJK, ICntrl=      2527 FMM=F ISym2X=1 I1Cent= 0 IOpClX= 0 NMat=1 NMatS=1 NMatT=0.
 ***** Axes restored to original set *****
 -------------------------------------------------------------------
 Center     Atomic                   Forces (Hartrees/Bohr)
 Number     Number              X              Y              Z
 -------------------------------------------------------------------
      1        6           0.000000000    0.000000000   -0.000000372
      2        8           0.000000000    0.000000000    0.000000372
 -------------------------------------------------------------------
 Cartesian Forces:  Max     0.000000372 RMS     0.000000215

 GradGradGradGradGradGradGradGradGradGradGradGradGradGradGradGradGradGrad
 Berny optimization.
 Using GEDIIS/GDIIS optimizer.
 Internal  Forces:  Max     0.000000372 RMS     0.000000372
 Search for a local minimum.
 Step number   3 out of a maximum of   20
 All quantities printed in internal units (Hartrees-Bohrs-Radians)
 Mixed Optimization -- En-DIIS/RFO-DIIS
 Update second derivatives using D2CorX and points    2    3
 DE= -3.16D-06 DEPred=-3.26D-06 R= 9.69D-01
 TightC=F SS=  1.41D+00  RLast= 2.35D-03 DXNew= 5.0454D-01 7.0390D-03
 Trust test= 9.69D-01 RLast= 2.35D-03 DXMaxT set to 3.00D-01
 The second derivative matrix:
                          R1
           R1           1.14511
 ITU=  1  1
 Use linear search instead of GDIIS.
     Eigenvalues ---    1.14511
 RFO step:  Lambda= 0.00000000D+00 EMin= 1.14510606D+00
 Quartic linear search produced a step of -0.00014.
 Iteration  1 RMS(Cart)=  0.00000023 RMS(Int)=  0.00000000
 ClnCor:  largest displacement from symmetrization is 0.00D+00 for atom     0.
 Variable       Old X    -DE/DX   Delta X   Delta X   Delta X     New X
                                 (Linear)    (Quad)   (Total)
    R1        2.17406   0.00000   0.00000   0.00000   0.00000   2.17406
         Item               Value     Threshold  Converged?
 Maximum Force            0.000000     0.000450     YES
 RMS     Force            0.000000     0.000300     YES
 Maximum Displacement     0.000000     0.001800     YES
 RMS     Displacement     0.000000     0.001200     YES
 Predicted change in Energy=-6.037468D-14
 Optimization completed.
    -- Stationary point found.
                           ----------------------------
                           !   Optimized Parameters   !
                           ! (Angstroms and Degrees)  !
 --------------------------                            --------------------------
 ! Name  Definition              Value          Derivative Info.                !
 --------------------------------------------------------------------------------
 ! R1    R(1,2)                  1.1505         -DE/DX =    0.0                 !
 --------------------------------------------------------------------------------
 GradGradGradGradGradGradGradGradGradGradGradGradGradGradGradGradGradGrad

                          Input orientation:                          
 ---------------------------------------------------------------------
 Center     Atomic      Atomic             Coordinates (Angstroms)
 Number     Number       Type             X           Y           Z
 ---------------------------------------------------------------------
      1          6           0        0.000000    0.000000    0.004769
      2          8           0        0.000000    0.000000    1.155231
 ---------------------------------------------------------------------
 Stoichiometry    CO
 Framework group  C*V[C*(CO)]
 Deg. of freedom     1
 Full point group                 C*V     NOp   4
 Largest Abelian subgroup         C2V     NOp   4
 Largest concise Abelian subgroup C1      NOp   1
                         Standard orientation:                         
 ---------------------------------------------------------------------
 Center     Atomic      Atomic             Coordinates (Angstroms)
 Number     Number       Type             X           Y           Z
 ---------------------------------------------------------------------
      1          6           0        0.000000    0.000000   -0.657406
      2          8           0        0.000000    0.000000    0.493055
 ---------------------------------------------------------------------
 Rotational constants (GHZ):      0.0000000     55.6915445     55.6915445

 **********************************************************************

            Population analysis using the SCF density.

 **********************************************************************

 Orbital symmetries:
       Occupied  (SG) (SG) (SG) (SG) (PI) (PI) (SG)
       Virtual   (PI) (PI) (SG) (PI) (PI) (SG) (SG) (SG) (PI) (PI)
                 (SG) (DLTA) (DLTA) (PI) (PI) (DLTA) (DLTA) (SG)
                 (PI) (PI) (SG) (SG) (SG)
 The electronic state is 1-SG.
 Alpha  occ. eigenvalues --  -18.90251 -10.03630  -1.04617  -0.49723  -0.40645
 Alpha  occ. eigenvalues --   -0.40645  -0.31270
 Alpha virt. eigenvalues --   -0.05688  -0.05688   0.23682   0.47372   0.47372
 Alpha virt. eigenvalues --    0.54262   0.67902   0.75154   0.86011   0.86011
 Alpha virt. eigenvalues --    1.32300   1.43190   1.43190   1.47485   1.47485
 Alpha virt. eigenvalues --    1.87412   1.87413   2.29925   2.51703   2.51703
 Alpha virt. eigenvalues --    2.85249   3.57297   3.81445
          Condensed to atoms (all electrons):
               1          2
     1  C    5.296767   0.551878
     2  O    0.551878   7.599476
 Mulliken charges:
               1
     1  C    0.151355
     2  O   -0.151355
 Sum of Mulliken charges =   0.00000
 Mulliken charges with hydrogens summed into heavy atoms:
               1
     1  C    0.151355
     2  O   -0.151355
 Electronic spatial extent (au):  <R**2>=             39.7933
 Charge=             -0.00000000000001 electrons
 Dipole moment (field-independent basis, Debye):
    X=              0.00000000000000    Y=              0.00000000000000    Z=              0.14448673819970  Tot=              0.14448673819970
 Quadrupole moment (field-independent basis, Debye-Ang):
   XX=             -9.89389563831942   YY=             -9.89389563831943   ZZ=            -11.93898374675694
   XY=              0.00000000000000   XZ=              0.00000000000000   YZ=              0.00000000000000
 Traceless Quadrupole moment (field-independent basis, Debye-Ang):
   XX=              0.68169603614584   YY=              0.68169603614583   ZZ=             -1.36339207229167
   XY=              0.00000000000000   XZ=              0.00000000000000   YZ=              0.00000000000000
 Octapole moment (field-independent basis, Debye-Ang**2):
  XXX=              0.00000000000000  YYY=              0.00000000000000  ZZZ=              5.81111206308479  XYY=              0.00000000000000
  XXY=              0.00000000000000  XXZ=              1.13403267413387  XZZ=              0.00000000000000  YZZ=              0.00000000000000
  YYZ=              1.13403267413388  XYZ=              0.00000000000000
 Hexadecapole moment (field-independent basis, Debye-Ang**3):
 XXXX=             -7.88469578929159 YYYY=             -7.88469578929161 ZZZZ=            -34.79581546178143 XXXY=              0.00000000000000
 XXXZ=              0.00000000000000 YYYX=              0.00000000000000 YYYZ=              0.00000000000000 ZZZX=              0.00000000000000
 ZZZY=              0.00000000000000 XXYY=             -2.62823192976387 XXZZ=             -6.59407747823086 YYZZ=             -6.59407747823087
 XXYZ=              0.00000000000000 YYXZ=              0.00000000000000 ZZXY=              0.00000000000000
 N-N= 2.207854320381D+01 E-N=-3.098362625071D+02  KE= 1.122822252014D+02
 Symmetry A1   KE= 1.041380335858D+02
 Symmetry A2   KE=-8.255043796216D-51
 Symmetry B1   KE= 4.072095807809D+00
 Symmetry B2   KE= 4.072095807809D+00
 1\1\GINC-ILMFIXE086\FOpt\RBLYP\6-31G(d,p)\C1O1\ALLOUCHE\14-Feb-2018\0\
 \# BLYP/6-31G** Opt Freq\\Gaussian file generated by cchemi\\0,1\C,0.,
 0.,0.0047694294\O,0.,0.,1.1552305706\\Version=EM64L-G09RevD.01\State=1
 -SG\HF=-113.2939795\RMSD=2.459e-09\RMSF=2.147e-07\Dipole=0.,0.,0.05684
 55\Quadrupole=0.5068243,0.5068243,-1.0136486,0.,0.,0.\PG=C*V [C*(C1O1)
 ]\\@


 FROM AN ANONYMOUS WRITER, ON PERSPECTIVE:

 MAN, DESPITE HIS ARTISTIC PRETENSIONS, HIS SOPHISTICATION AND MANY 
 ACCOMPLISHMENTS, OWES THE FACT OF HIS EXISTENCE TO A SIX-INCH LAYER OF 
 TOPSOIL AND THE FACT THAT IT RAINS.
 Job cpu time:       0 days  0 hours  0 minutes  4.7 seconds.
 File lengths (MBytes):  RWF=      5 Int=      0 D2E=      0 Chk=      1 Scr=      1
 Normal termination of Gaussian 09 at Wed Feb 14 19:57:08 2018.
 Link1:  Proceeding to internal job step number  2.
 ---------------------------------------------------------------------
 #N Geom=AllCheck Guess=TCheck SCRF=Check GenChk RBLYP/6-31G(d,p) Freq
 ---------------------------------------------------------------------
 1/10=4,29=7,30=1,38=1,40=1/1,3;
 2/12=2,40=1/2;
 3/5=1,6=6,7=101,11=2,14=-4,16=1,25=1,30=1,70=2,71=2,74=402,116=1,140=1/1,2,3;
 4/5=101/1;
 5/5=2,98=1/2;
 8/6=4,10=90,11=11/1;
 11/6=1,8=1,9=11,15=111,16=1/1,2,10;
 10/6=1/2;
 6/7=2,8=2,9=2,10=2,18=1,28=1/1;
 7/8=1,10=1,25=1/1,2,3,16;
 1/10=4,30=1/3;
 99//99;
 Structure from the checkpoint file:  "/tmp/allouche/2069/Gau-504.chk"
 ---------------------------------
 Gaussian file generated by cchemi
 ---------------------------------
 Charge =  0 Multiplicity = 1
 Redundant internal coordinates found in file.
 C,0,0.,0.,0.0047694294
 O,0,0.,0.,1.1552305706
 Recover connectivity data from disk.

 GradGradGradGradGradGradGradGradGradGradGradGradGradGradGradGradGradGrad
 Berny optimization.
 Initialization pass.
                           ----------------------------
                           !    Initial Parameters    !
                           ! (Angstroms and Degrees)  !
 --------------------------                            --------------------------
 ! Name  Definition              Value          Derivative Info.                !
 --------------------------------------------------------------------------------
 ! R1    R(1,2)                  1.1505         calculate D2E/DX2 analytically  !
 --------------------------------------------------------------------------------
 Trust Radius=3.00D-01 FncErr=1.00D-07 GrdErr=1.00D-07
 Number of steps in this run=      2 maximum allowed number of steps=      2.
 GradGradGradGradGradGradGradGradGradGradGradGradGradGradGradGradGradGrad

                          Input orientation:                          
 ---------------------------------------------------------------------
 Center     Atomic      Atomic             Coordinates (Angstroms)
 Number     Number       Type             X           Y           Z
 ---------------------------------------------------------------------
      1          6           0        0.000000    0.000000    0.004769
      2          8           0        0.000000    0.000000    1.155231
 ---------------------------------------------------------------------
 Stoichiometry    CO
 Framework group  C*V[C*(CO)]
 Deg. of freedom     1
 Full point group                 C*V     NOp   4
 Largest Abelian subgroup         C2V     NOp   4
 Largest concise Abelian subgroup C1      NOp   1
                         Standard orientation:                         
 ---------------------------------------------------------------------
 Center     Atomic      Atomic             Coordinates (Angstroms)
 Number     Number       Type             X           Y           Z
 ---------------------------------------------------------------------
      1          6           0        0.000000    0.000000   -0.657406
      2          8           0        0.000000    0.000000    0.493055
 ---------------------------------------------------------------------
 Rotational constants (GHZ):      0.0000000     55.6915445     55.6915445
 Standard basis: 6-31G(d,p) (6D, 7F)
 There are    16 symmetry adapted cartesian basis functions of A1  symmetry.
 There are     2 symmetry adapted cartesian basis functions of A2  symmetry.
 There are     6 symmetry adapted cartesian basis functions of B1  symmetry.
 There are     6 symmetry adapted cartesian basis functions of B2  symmetry.
 There are    16 symmetry adapted basis functions of A1  symmetry.
 There are     2 symmetry adapted basis functions of A2  symmetry.
 There are     6 symmetry adapted basis functions of B1  symmetry.
 There are     6 symmetry adapted basis functions of B2  symmetry.
    30 basis functions,    56 primitive gaussians,    30 cartesian basis functions
     7 alpha electrons        7 beta electrons
       nuclear repulsion energy        22.0785432038 Hartrees.
 NAtoms=    2 NActive=    2 NUniq=    2 SFac= 1.00D+00 NAtFMM=   60 NAOKFM=F Big=F
 Integral buffers will be    131072 words long.
 Raffenetti 2 integral format.
 Two-electron integral symmetry is turned on.
 One-electron integrals computed using PRISM.
 NBasis=    30 RedAO= T EigKep=  1.64D-02  NBF=    16     2     6     6
 NBsUse=    30 1.00D-06 EigRej= -1.00D+00 NBFU=    16     2     6     6
 Initial guess from the checkpoint file:  "/tmp/allouche/2069/Gau-504.chk"
 B after Tr=     0.000000    0.000000    0.000000
         Rot=    1.000000    0.000000    0.000000    0.000000 Ang=   0.00 deg.
 Initial guess orbital symmetries:
       Occupied  (SG) (SG) (SG) (SG) (PI) (PI) (SG)
       Virtual   (PI) (PI) (SG) (PI) (PI) (SG) (SG) (SG) (PI) (PI)
                 (SG) (DLTA) (DLTA) (PI) (PI) (DLTA) (DLTA) (SG)
                 (PI) (PI) (SG) (SG) (SG)
 Keep J ints in memory in symmetry-blocked form, NReq=991851.
 Requested convergence on RMS density matrix=1.00D-08 within 128 cycles.
 Requested convergence on MAX density matrix=1.00D-06.
 Requested convergence on             energy=1.00D-06.
 No special actions if energy rises.
 Skip diagonalization as Alpha Fock matrix is already diagonal.
 SCF Done:  E(RB-LYP) =  -113.293979480     A.U. after    1 cycles
            NFock=  1  Conv=0.00D+00     -V/T= 2.0090
 Range of M.O.s used for correlation:     1    30
 NBasis=    30 NAE=     7 NBE=     7 NFC=     0 NFV=     0
 NROrb=     30 NOA=     7 NOB=     7 NVA=    23 NVB=    23
 Symmetrizing basis deriv contribution to polar:
 IMax=3 JMax=2 DiffMx= 0.00D+00
 G2DrvN: will do     3 centers at a time, making    1 passes.
 Calling FoFCou, ICntrl=  3507 FMM=F I1Cent=   0 AccDes= 0.00D+00.
 End of G2Drv F.D. properties file   721 does not exist.
 End of G2Drv F.D. properties file   722 does not exist.
 End of G2Drv F.D. properties file   788 does not exist.
          IDoAtm=11
          Differentiating once with respect to electric field.
                with respect to dipole field.
          Differentiating once with respect to nuclear coordinates.
 Keep J ints in memory in symmetry-blocked form, NReq=969435.
          There are     9 degrees of freedom in the 1st order CPHF.  IDoFFX=6 NUNeed=     3.
      6 vectors produced by pass  0 Test12= 1.79D-15 1.11D-08 XBig12= 1.85D+01 2.81D+00.
 AX will form     6 AO Fock derivatives at one time.
      6 vectors produced by pass  1 Test12= 1.79D-15 1.11D-08 XBig12= 1.54D+01 2.14D+00.
      6 vectors produced by pass  2 Test12= 1.79D-15 1.11D-08 XBig12= 8.66D-02 1.31D-01.
      6 vectors produced by pass  3 Test12= 1.79D-15 1.11D-08 XBig12= 2.48D-03 3.06D-02.
      6 vectors produced by pass  4 Test12= 1.79D-15 1.11D-08 XBig12= 5.71D-07 2.88D-04.
      4 vectors produced by pass  5 Test12= 1.79D-15 1.11D-08 XBig12= 1.78D-10 5.33D-06.
      1 vectors produced by pass  6 Test12= 1.79D-15 1.11D-08 XBig12= 1.21D-13 1.65D-07.
 InvSVY:  IOpt=1 It=  1 EMax= 3.33D-16
 Solved reduced A of dimension    35 with     6 vectors.
 Isotropic polarizability for W=    0.000000        9.68 Bohr**3.
 End of Minotr F.D. properties file   721 does not exist.
 End of Minotr F.D. properties file   722 does not exist.
 End of Minotr F.D. properties file   788 does not exist.

 **********************************************************************

            Population analysis using the SCF density.

 **********************************************************************

 Orbital symmetries:
       Occupied  (SG) (SG) (SG) (SG) (PI) (PI) (SG)
       Virtual   (PI) (PI) (SG) (PI) (PI) (SG) (SG) (SG) (PI) (PI)
                 (SG) (DLTA) (DLTA) (PI) (PI) (DLTA) (DLTA) (SG)
                 (PI) (PI) (SG) (SG) (SG)
 The electronic state is 1-SG.
 Alpha  occ. eigenvalues --  -18.90251 -10.03630  -1.04617  -0.49723  -0.40645
 Alpha  occ. eigenvalues --   -0.40645  -0.31270
 Alpha virt. eigenvalues --   -0.05688  -0.05688   0.23682   0.47372   0.47372
 Alpha virt. eigenvalues --    0.54262   0.67902   0.75154   0.86011   0.86011
 Alpha virt. eigenvalues --    1.32300   1.43190   1.43190   1.47485   1.47485
 Alpha virt. eigenvalues --    1.87412   1.87413   2.29925   2.51703   2.51703
 Alpha virt. eigenvalues --    2.85249   3.57297   3.81445
          Condensed to atoms (all electrons):
               1          2
     1  C    5.296767   0.551878
     2  O    0.551878   7.599476
 Mulliken charges:
               1
     1  C    0.151355
     2  O   -0.151355
 Sum of Mulliken charges =   0.00000
 Mulliken charges with hydrogens summed into heavy atoms:
               1
     1  C    0.151355
     2  O   -0.151355
 APT charges:
               1
     1  C    0.186835
     2  O   -0.186835
 Sum of APT charges =   0.00000
 APT charges with hydrogens summed into heavy atoms:
               1
     1  C    0.186835
     2  O   -0.186835
 Electronic spatial extent (au):  <R**2>=             39.7933
 Charge=              0.00000000000000 electrons
 Dipole moment (field-independent basis, Debye):
    X=              0.00000000000000    Y=              0.00000000000000    Z=              0.14448673819974  Tot=              0.14448673819974
 Quadrupole moment (field-independent basis, Debye-Ang):
   XX=             -9.89389563831942   YY=             -9.89389563831943   ZZ=            -11.93898374675687
   XY=              0.00000000000000   XZ=              0.00000000000000   YZ=              0.00000000000000
 Traceless Quadrupole moment (field-independent basis, Debye-Ang):
   XX=              0.68169603614582   YY=              0.68169603614581   ZZ=             -1.36339207229163
   XY=              0.00000000000000   XZ=              0.00000000000000   YZ=              0.00000000000000
 Octapole moment (field-independent basis, Debye-Ang**2):
  XXX=              0.00000000000000  YYY=              0.00000000000000  ZZZ=              5.81111206308483  XYY=              0.00000000000000
  XXY=              0.00000000000000  XXZ=              1.13403267413389  XZZ=              0.00000000000000  YZZ=              0.00000000000000
  YYZ=              1.13403267413389  XYZ=              0.00000000000000
 Hexadecapole moment (field-independent basis, Debye-Ang**3):
 XXXX=             -7.88469578929161 YYYY=             -7.88469578929164 ZZZZ=            -34.79581546178134 XXXY=              0.00000000000000
 XXXZ=              0.00000000000000 YYYX=              0.00000000000000 YYYZ=              0.00000000000000 ZZZX=              0.00000000000000
 ZZZY=              0.00000000000000 XXYY=             -2.62823192976388 XXZZ=             -6.59407747823087 YYZZ=             -6.59407747823087
 XXYZ=              0.00000000000000 YYXZ=              0.00000000000000 ZZXY=              0.00000000000000
 N-N= 2.207854320381D+01 E-N=-3.098362625071D+02  KE= 1.122822252014D+02
 Symmetry A1   KE= 1.041380335858D+02
 Symmetry A2   KE= 8.255043796216D-51
 Symmetry B1   KE= 4.072095807809D+00
 Symmetry B2   KE= 4.072095807809D+00
  Exact polarizability:   8.070   0.000   8.070   0.000   0.000  12.897
 Approx polarizability:  13.357   0.000  13.357   0.000   0.000  29.807
 Calling FoFJK, ICntrl=    100527 FMM=F ISym2X=1 I1Cent= 0 IOpClX= 0 NMat=1 NMatS=1 NMatT=0.
 Full mass-weighted force constant matrix:
 Low frequencies ---   -0.0006   -0.0006    0.0016   22.7597   22.7597 2105.4434
 Diagonal vibrational polarizability:
        0.0000000       0.0000000       0.3240505
 Harmonic frequencies (cm**-1), IR intensities (KM/Mole), Raman scattering
 activities (A**4/AMU), depolarization ratios for plane and unpolarized
 incident light, reduced masses (AMU), force constants (mDyne/A),
 and normal coordinates:
                      1
                     SG
 Frequencies --   2105.44338337671200
 Red. masses --     13.43875450414975
 Frc consts  --     35.09912751193871
 IR Inten    --     53.37853894776633
  Atom  AN      X      Y      Z
     1   6     0.000000000000   0.000000000000   0.799908435584
     2   8     0.000000000000   0.000000000000  -0.600122066485

 -------------------
 - Thermochemistry -
 -------------------
 Temperature   298.150 Kelvin.  Pressure   1.00000 Atm.
 Atom     1 has atomic number  6 and mass  12.00000
 Atom     2 has atomic number  8 and mass  15.99491
 Molecular mass:    27.99491 amu.
 Principal axes and moments of inertia in atomic units:
                           1         2         3
     Eigenvalues --     0.00000  32.40602  32.40602
           X            0.00000   0.00000   1.00000
           Y            0.00000   1.00000   0.00000
           Z            1.00000   0.00000   0.00000
 This molecule is a prolate symmetric top.
 Rotational symmetry number  1.
 Rotational temperature (Kelvin)      2.67277
 Rotational constant (GHZ):          55.691544
 Zero-point vibrational energy      12593.3 (Joules/Mol)
                                    3.00988 (Kcal/Mol)
 Vibrational temperatures:   3029.26
          (Kelvin)
 
 Zero-point correction=                           0.004797 (Hartree/Particle)
 Thermal correction to Energy=                    0.007157
 Thermal correction to Enthalpy=                  0.008102
 Thermal correction to Gibbs Free Energy=        -0.014363
 Sum of electronic and zero-point Energies=           -113.289183
 Sum of electronic and thermal Energies=              -113.286822
 Sum of electronic and thermal Enthalpies=            -113.285878
 Sum of electronic and thermal Free Energies=         -113.308342
 
                     E (Thermal)             CV                S
                      KCal/Mol        Cal/Mol-Kelvin    Cal/Mol-Kelvin
 Total                    4.491              4.976             47.280
 Electronic               0.000              0.000              0.000
 Translational            0.889              2.981             35.923
 Rotational               0.592              1.987             11.356
 Vibrational              3.010              0.008              0.001
                       Q            Log10(Q)             Ln(Q)
 Total Bot       0.403931D+07          6.606308         15.211585
 Total V=0       0.649477D+09          8.812564         20.291679
 Vib (Bot)       0.621957D-02         -2.206240         -5.080055
 Vib (V=0)       0.100004D+01          0.000017          0.000039
 Electronic      0.100000D+01          0.000000          0.000000
 Translational   0.582202D+07          6.765074         15.577158
 Rotational      0.111551D+03          2.047473          4.714482
 ***** Axes restored to original set *****
 -------------------------------------------------------------------
 Center     Atomic                   Forces (Hartrees/Bohr)
 Number     Number              X              Y              Z
 -------------------------------------------------------------------
      1        6           0.000000000    0.000000000   -0.000000371
      2        8           0.000000000    0.000000000    0.000000371
 -------------------------------------------------------------------
 Cartesian Forces:  Max     0.000000371 RMS     0.000000214
 FormGI is forming the generalized inverse of G from B-inverse, IUseBI=4.

 GradGradGradGradGradGradGradGradGradGradGradGradGradGradGradGradGradGrad
 Berny optimization.
 Internal  Forces:  Max     0.000000371 RMS     0.000000371
 Search for a local minimum.
 Step number   1 out of a maximum of    2
 All quantities printed in internal units (Hartrees-Bohrs-Radians)
 Second derivative matrix not updated -- analytic derivatives used.
 The second derivative matrix:
                          R1
           R1           1.15017
 ITU=  0
     Eigenvalues ---    1.15017
 Angle between quadratic step and forces=  90.00 degrees.
 Linear search not attempted -- first point.
 Iteration  1 RMS(Cart)=  0.00000023 RMS(Int)=  0.00000000
 ClnCor:  largest displacement from symmetrization is 0.00D+00 for atom     0.
 Variable       Old X    -DE/DX   Delta X   Delta X   Delta X     New X
                                 (Linear)    (Quad)   (Total)
    R1        2.17406   0.00000   0.00000   0.00000   0.00000   2.17406
         Item               Value     Threshold  Converged?
 Maximum Force            0.000000     0.000450     YES
 RMS     Force            0.000000     0.000300     YES
 Maximum Displacement     0.000000     0.001800     YES
 RMS     Displacement     0.000000     0.001200     YES
 Predicted change in Energy=-5.993409D-14
 Optimization completed.
    -- Stationary point found.
                           ----------------------------
                           !   Optimized Parameters   !
                           ! (Angstroms and Degrees)  !
 --------------------------                            --------------------------
 ! Name  Definition              Value          Derivative Info.                !
 --------------------------------------------------------------------------------
 ! R1    R(1,2)                  1.1505         -DE/DX =    0.0                 !
 --------------------------------------------------------------------------------
 GradGradGradGradGradGradGradGradGradGradGradGradGradGradGradGradGradGrad

 1\1\GINC-ILMFIXE086\Freq\RBLYP\6-31G(d,p)\C1O1\ALLOUCHE\14-Feb-2018\0\
 \#N Geom=AllCheck Guess=TCheck SCRF=Check GenChk RBLYP/6-31G(d,p) Freq
 \\Gaussian file generated by cchemi\\0,1\C,0.,0.,0.0047694294\O,0.,0.,
 1.1552305706\\Version=EM64L-G09RevD.01\State=1-SG\HF=-113.2939795\RMSD
 =0.000e+00\RMSF=2.144e-07\ZeroPoint=0.0047966\Thermal=0.0071574\Dipole
 =0.,0.,0.0568455\DipoleDeriv=-0.0260994,0.,0.,0.,-0.0260994,0.,0.,0.,0
 .6127026,0.0260994,0.,0.,0.,0.0260994,0.,0.,0.,-0.6127026\Polar=8.0696
 58,0.,8.069658,0.,0.,12.8968968\PG=C*V [C*(C1O1)]\NImag=0\\0.00013440,
 0.,0.00013440,0.,0.,1.15017151,-0.00013440,0.,0.,0.00013440,0.,-0.0001
 3440,0.,0.,0.00013440,0.,0.,-1.15017151,0.,0.,1.15017151\\0.,0.,0.0000
 0037,0.,0.,-0.00000037\\\@


 Experience is what you get when you don't get what you want.
 -- Dan Stanford
 Job cpu time:       0 days  0 hours  0 minutes  3.1 seconds.
 File lengths (MBytes):  RWF=      5 Int=      0 D2E=      0 Chk=      1 Scr=      1
 Normal termination of Gaussian 09 at Wed Feb 14 19:57:11 2018.
