 Entering Gaussian System, Link 0=/opt/local/Softwares/G09DSrc-Corr5/g09/g09
 Initial command:
 /opt/local/Softwares/G09DSrc-Corr5/g09/l1.exe "/tmp/allouche/5333/Gau-467.inp" -scrdir="/tmp/allouche/5333/"
 Entering Link 1 = /opt/local/Softwares/G09DSrc-Corr5/g09/l1.exe PID=       469.
  
 Copyright (c) 1988,1990,1992,1993,1995,1998,2003,2009,2013,
            Gaussian, Inc.  All Rights Reserved.
  
 This is part of the Gaussian(R) 09 program.  It is based on
 the Gaussian(R) 03 system (copyright 2003, Gaussian, Inc.),
 the Gaussian(R) 98 system (copyright 1998, Gaussian, Inc.),
 the Gaussian(R) 94 system (copyright 1995, Gaussian, Inc.),
 the Gaussian 92(TM) system (copyright 1992, Gaussian, Inc.),
 the Gaussian 90(TM) system (copyright 1990, Gaussian, Inc.),
 the Gaussian 88(TM) system (copyright 1988, Gaussian, Inc.),
 the Gaussian 86(TM) system (copyright 1986, Carnegie Mellon
 University), and the Gaussian 82(TM) system (copyright 1983,
 Carnegie Mellon University). Gaussian is a federally registered
 trademark of Gaussian, Inc.
  
 This software contains proprietary and confidential information,
 including trade secrets, belonging to Gaussian, Inc.
  
 This software is provided under written license and may be
 used, copied, transmitted, or stored only in accord with that
 written license.
  
 The following legend is applicable only to US Government
 contracts under FAR:
  
                    RESTRICTED RIGHTS LEGEND
  
 Use, reproduction and disclosure by the US Government is
 subject to restrictions as set forth in subparagraphs (a)
 and (c) of the Commercial Computer Software - Restricted
 Rights clause in FAR 52.227-19.
  
 Gaussian, Inc.
 340 Quinnipiac St., Bldg. 40, Wallingford CT 06492
  
  
 ---------------------------------------------------------------
 Warning -- This program may not be used in any manner that
 competes with the business of Gaussian, Inc. or will provide
 assistance to any competitor of Gaussian, Inc.  The licensee
 of this program is prohibited from giving any competitor of
 Gaussian, Inc. access to this program.  By using this program,
 the user acknowledges that Gaussian, Inc. is engaged in the
 business of creating and licensing software in the field of
 computational chemistry and represents and warrants to the
 licensee that it is not a competitor of Gaussian, Inc. and that
 it will not use this program in any manner prohibited above.
 ---------------------------------------------------------------
  

 Cite this work as:
 Gaussian 09, Revision D.01,
 M. J. Frisch, G. W. Trucks, H. B. Schlegel, G. E. Scuseria, 
 M. A. Robb, J. R. Cheeseman, G. Scalmani, V. Barone, B. Mennucci, 
 G. A. Petersson, H. Nakatsuji, M. Caricato, X. Li, H. P. Hratchian, 
 A. F. Izmaylov, J. Bloino, G. Zheng, J. L. Sonnenberg, M. Hada, 
 M. Ehara, K. Toyota, R. Fukuda, J. Hasegawa, M. Ishida, T. Nakajima, 
 Y. Honda, O. Kitao, H. Nakai, T. Vreven, J. A. Montgomery, Jr., 
 J. E. Peralta, F. Ogliaro, M. Bearpark, J. J. Heyd, E. Brothers, 
 K. N. Kudin, V. N. Staroverov, T. Keith, R. Kobayashi, J. Normand, 
 K. Raghavachari, A. Rendell, J. C. Burant, S. S. Iyengar, J. Tomasi, 
 M. Cossi, N. Rega, J. M. Millam, M. Klene, J. E. Knox, J. B. Cross, 
 V. Bakken, C. Adamo, J. Jaramillo, R. Gomperts, R. E. Stratmann, 
 O. Yazyev, A. J. Austin, R. Cammi, C. Pomelli, J. W. Ochterski, 
 R. L. Martin, K. Morokuma, V. G. Zakrzewski, G. A. Voth, 
 P. Salvador, J. J. Dannenberg, S. Dapprich, A. D. Daniels, 
 O. Farkas, J. B. Foresman, J. V. Ortiz, J. Cioslowski, 
 and D. J. Fox, Gaussian, Inc., Wallingford CT, 2013.
 
 ******************************************
 Gaussian 09:  EM64L-G09RevD.01 24-Apr-2013
                14-Feb-2018 
 ******************************************
 -----------------------
 # BLYP/6-31G** Opt Freq
 -----------------------
 1/14=-1,18=20,19=15,26=3,38=1/1,3;
 2/9=110,12=2,17=6,18=5,40=1/2;
 3/5=1,6=6,7=101,11=2,16=1,25=1,30=1,71=1,74=402/1,2,3;
 4//1;
 5/5=2,38=5/2;
 6/7=2,8=2,9=2,10=2,28=1/1;
 7//1,2,3,16;
 1/14=-1,18=20,19=15,26=3/3(2);
 2/9=110/2;
 99//99;
 2/9=110/2;
 3/5=1,6=6,7=101,11=2,16=1,25=1,30=1,71=1,74=402/1,2,3;
 4/5=5,16=3,69=1/1;
 5/5=2,38=5/2;
 7//1,2,3,16;
 1/14=-1,18=20,19=15,26=3/3(-5);
 2/9=110/2;
 6/7=2,8=2,9=2,10=2,19=2,28=1/1;
 99/9=1/99;
 ---------------------------------
 Gaussian file generated by cchemi
 ---------------------------------
 Symbolic Z-matrix:
 Charge =  0 Multiplicity = 1
 C                     0.        0.        0. 
 O                     0.        0.        1.16 
 O                     0.        0.       -1.16 
 

 GradGradGradGradGradGradGradGradGradGradGradGradGradGradGradGradGradGrad
 Berny optimization.
 Initialization pass.
                           ----------------------------
                           !    Initial Parameters    !
                           ! (Angstroms and Degrees)  !
 --------------------------                            --------------------------
 ! Name  Definition              Value          Derivative Info.                !
 --------------------------------------------------------------------------------
 ! R1    R(1,2)                  1.16           estimate D2E/DX2                !
 ! R2    R(1,3)                  1.16           estimate D2E/DX2                !
 ! A1    L(2,1,3,-1,-1)        180.0            estimate D2E/DX2                !
 ! A2    L(2,1,3,-2,-2)        180.0            estimate D2E/DX2                !
 --------------------------------------------------------------------------------
 Trust Radius=3.00D-01 FncErr=1.00D-07 GrdErr=1.00D-06
 Number of steps in this run=     20 maximum allowed number of steps=    100.
 GradGradGradGradGradGradGradGradGradGradGradGradGradGradGradGradGradGrad

                          Input orientation:                          
 ---------------------------------------------------------------------
 Center     Atomic      Atomic             Coordinates (Angstroms)
 Number     Number       Type             X           Y           Z
 ---------------------------------------------------------------------
      1          6           0        0.000000    0.000000    0.000000
      2          8           0        0.000000    0.000000    1.160000
      3          8           0        0.000000    0.000000   -1.160000
 ---------------------------------------------------------------------
                    Distance matrix (angstroms):
                    1          2          3
     1  C    0.000000
     2  O    1.160000   0.000000
     3  O    1.160000   2.320000   0.000000
 Stoichiometry    CO2
 Framework group  D*H[O(C),C*(O.O)]
 Deg. of freedom     1
 Full point group                 D*H     NOp   8
 Largest Abelian subgroup         D2H     NOp   8
 Largest concise Abelian subgroup C2      NOp   2
                         Standard orientation:                         
 ---------------------------------------------------------------------
 Center     Atomic      Atomic             Coordinates (Angstroms)
 Number     Number       Type             X           Y           Z
 ---------------------------------------------------------------------
      1          6           0        0.000000    0.000000    0.000000
      2          8           0        0.000000    0.000000    1.160000
      3          8           0        0.000000    0.000000   -1.160000
 ---------------------------------------------------------------------
 Rotational constants (GHZ):      0.0000000     11.7405731     11.7405731
 Standard basis: 6-31G(d,p) (6D, 7F)
 There are    14 symmetry adapted cartesian basis functions of AG  symmetry.
 There are     2 symmetry adapted cartesian basis functions of B1G symmetry.
 There are     4 symmetry adapted cartesian basis functions of B2G symmetry.
 There are     4 symmetry adapted cartesian basis functions of B3G symmetry.
 There are     1 symmetry adapted cartesian basis functions of AU  symmetry.
 There are    10 symmetry adapted cartesian basis functions of B1U symmetry.
 There are     5 symmetry adapted cartesian basis functions of B2U symmetry.
 There are     5 symmetry adapted cartesian basis functions of B3U symmetry.
 There are    14 symmetry adapted basis functions of AG  symmetry.
 There are     2 symmetry adapted basis functions of B1G symmetry.
 There are     4 symmetry adapted basis functions of B2G symmetry.
 There are     4 symmetry adapted basis functions of B3G symmetry.
 There are     1 symmetry adapted basis functions of AU  symmetry.
 There are    10 symmetry adapted basis functions of B1U symmetry.
 There are     5 symmetry adapted basis functions of B2U symmetry.
 There are     5 symmetry adapted basis functions of B3U symmetry.
    45 basis functions,    84 primitive gaussians,    45 cartesian basis functions
    11 alpha electrons       11 beta electrons
       nuclear repulsion energy        58.3919678444 Hartrees.
 NAtoms=    3 NActive=    3 NUniq=    2 SFac= 2.25D+00 NAtFMM=   60 NAOKFM=F Big=F
 Integral buffers will be    131072 words long.
 Raffenetti 2 integral format.
 Two-electron integral symmetry is turned on.
 One-electron integrals computed using PRISM.
 NBasis=    45 RedAO= T EigKep=  4.44D-03  NBF=    14     2     4     4     1    10     5     5
 NBsUse=    45 1.00D-06 EigRej= -1.00D+00 NBFU=    14     2     4     4     1    10     5     5
 ExpMin= 1.69D-01 ExpMax= 5.48D+03 ExpMxC= 8.25D+02 IAcc=1 IRadAn=         1 AccDes= 0.00D+00
 Harris functional with IExCor=  402 and IRadAn=       1 diagonalized for initial guess.
 HarFok:  IExCor=  402 AccDes= 0.00D+00 IRadAn=         1 IDoV= 1 UseB2=F ITyADJ=14
 ICtDFT=  3500011 ScaDFX=  1.000000  1.000000  1.000000  1.000000
 FoFCou: FMM=F IPFlag=           0 FMFlag=      100000 FMFlg1=           0
         NFxFlg=           0 DoJE=T BraDBF=F KetDBF=T FulRan=T
         wScrn=  0.000000 ICntrl=     500 IOpCl=  0 I1Cent=   200000004 NGrid=           0
         NMat0=    1 NMatS0=      1 NMatT0=    0 NMatD0=    1 NMtDS0=    0 NMtDT0=    0
 Petite list used in FoFCou.
 Initial guess orbital symmetries:
       Occupied  (SGG) (SGU) (SGG) (SGG) (SGU) (SGG) (SGU) (PIU)
                 (PIU) (PIG) (PIG)
       Virtual   (PIU) (PIU) (SGG) (SGU) (PIU) (PIU) (SGG) (SGU)
                 (SGG) (PIG) (PIG) (SGU) (PIU) (PIU) (SGG) (PIG)
                 (PIG) (DLTG) (DLTG) (DLTU) (DLTU) (SGU) (DLTG)
                 (DLTG) (PIU) (PIU) (SGG) (SGU) (PIG) (PIG) (SGG)
                 (SGG) (SGG) (SGU)
 The electronic state of the initial guess is 1-SGG.
 Keep J ints in memory in symmetry-blocked form, NReq=1431462.
 Requested convergence on RMS density matrix=1.00D-08 within 128 cycles.
 Requested convergence on MAX density matrix=1.00D-06.
 Requested convergence on             energy=1.00D-06.
 No special actions if energy rises.
 Integral accuracy reduced to 1.0D-05 until final iterations.
 Initial convergence to 1.0D-05 achieved.  Increase integral accuracy.
 SCF Done:  E(RB-LYP) =  -188.561036988     A.U. after   10 cycles
            NFock= 10  Conv=0.31D-08     -V/T= 2.0081

 **********************************************************************

            Population analysis using the SCF density.

 **********************************************************************

 Orbital symmetries:
       Occupied  (SGG) (SGU) (SGG) (SGG) (SGU) (SGG) (PIU) (PIU)
                 (SGU) (PIG) (PIG)
       Virtual   (PIU) (PIU) (SGG) (SGU) (PIU) (PIU) (SGG) (SGU)
                 (SGG) (PIG) (PIG) (SGU) (PIU) (PIU) (SGG) (DLTG)
                 (DLTG) (PIG) (PIG) (DLTU) (DLTU) (SGU) (DLTG)
                 (DLTG) (PIU) (PIU) (SGG) (SGU) (PIG) (PIG) (SGG)
                 (SGG) (SGG) (SGU)
 The electronic state is 1-SGG.
 Alpha  occ. eigenvalues --  -18.87574 -18.87571 -10.10209  -1.05614  -1.01878
 Alpha  occ. eigenvalues --   -0.48519  -0.44879  -0.44879  -0.44482  -0.31258
 Alpha  occ. eigenvalues --   -0.31258
 Alpha virt. eigenvalues --    0.00884   0.00884   0.06090   0.34110   0.43888
 Alpha virt. eigenvalues --    0.43888   0.54969   0.69975   0.74443   0.82248
 Alpha virt. eigenvalues --    0.82248   0.98646   0.99110   0.99110   1.34147
 Alpha virt. eigenvalues --    1.34563   1.34564   1.36418   1.36418   1.67066
 Alpha virt. eigenvalues --    1.67066   1.78715   1.97681   1.97682   2.07114
 Alpha virt. eigenvalues --    2.07114   2.68249   2.84956   2.90022   2.90022
 Alpha virt. eigenvalues --    2.98889   3.67097   4.31643   4.37035
          Condensed to atoms (all electrons):
               1          2          3
     1  C    4.155093   0.591471   0.591471
     2  O    0.591471   7.759183  -0.019671
     3  O    0.591471  -0.019671   7.759183
 Mulliken charges:
               1
     1  C    0.661966
     2  O   -0.330983
     3  O   -0.330983
 Sum of Mulliken charges =   0.00000
 Mulliken charges with hydrogens summed into heavy atoms:
               1
     1  C    0.661966
     2  O   -0.330983
     3  O   -0.330983
 Electronic spatial extent (au):  <R**2>=            112.1296
 Charge=             -0.00000000000001 electrons
 Dipole moment (field-independent basis, Debye):
    X=              0.00000000000000    Y=              0.00000000000000    Z=              0.00000000000000  Tot=              0.00000000000000
 Quadrupole moment (field-independent basis, Debye-Ang):
   XX=            -14.40325883718784   YY=            -14.40325883718768   ZZ=            -18.60052174249805
   XY=              0.00000000000000   XZ=              0.00000000000000   YZ=              0.00000000000000
 Traceless Quadrupole moment (field-independent basis, Debye-Ang):
   XX=              1.39908763510335   YY=              1.39908763510351   ZZ=             -2.79817527020686
   XY=              0.00000000000000   XZ=              0.00000000000000   YZ=              0.00000000000000
 Octapole moment (field-independent basis, Debye-Ang**2):
  XXX=              0.00000000000000  YYY=              0.00000000000000  ZZZ=              0.00000000000000  XYY=              0.00000000000000
  XXY=              0.00000000000000  XXZ=              0.00000000000000  XZZ=              0.00000000000000  YZZ=              0.00000000000000
  YYZ=              0.00000000000000  XYZ=              0.00000000000000
 Hexadecapole moment (field-independent basis, Debye-Ang**3):
 XXXX=            -10.32113758306137 YYYY=            -10.32113758306099 ZZZZ=            -98.55289386404274 XXXY=              0.00000000000000
 XXXZ=              0.00000000000000 YYYX=              0.00000000000000 YYYZ=              0.00000000000000 ZZZX=              0.00000000000000
 ZZZY=              0.00000000000000 XXYY=             -3.44037919435373 XXZZ=            -17.69239593461491 YYZZ=            -17.69239593461487
 XXYZ=              0.00000000000000 YYXZ=              0.00000000000000 ZZXY=              0.00000000000000
 N-N= 5.839196784441D+01 E-N=-5.599896252996D+02  KE= 1.870460245727D+02
 Symmetry AG   KE= 1.008966283359D+02
 Symmetry B1G  KE= 1.126687602333D-33
 Symmetry B2G  KE= 4.959506255934D+00
 Symmetry B3G  KE= 4.959506255934D+00
 Symmetry AU   KE= 2.018387204096D-34
 Symmetry B1U  KE= 6.904470274449D+01
 Symmetry B2U  KE= 3.592840490199D+00
 Symmetry B3U  KE= 3.592840490199D+00
 Calling FoFJK, ICntrl=      2527 FMM=F ISym2X=1 I1Cent= 0 IOpClX= 0 NMat=1 NMatS=1 NMatT=0.
 ***** Axes restored to original set *****
 -------------------------------------------------------------------
 Center     Atomic                   Forces (Hartrees/Bohr)
 Number     Number              X              Y              Z
 -------------------------------------------------------------------
      1        6           0.000000000    0.000000000    0.000000000
      2        8           0.000000000    0.000000000    0.048196900
      3        8           0.000000000    0.000000000   -0.048196900
 -------------------------------------------------------------------
 Cartesian Forces:  Max     0.048196900 RMS     0.022720237

 GradGradGradGradGradGradGradGradGradGradGradGradGradGradGradGradGradGrad
 Berny optimization.
 FormGI is forming the generalized inverse of G from B-inverse, IUseBI=4.
 Internal  Forces:  Max     0.048196900 RMS     0.034080355
 Search for a local minimum.
 Step number   1 out of a maximum of   20
 All quantities printed in internal units (Hartrees-Bohrs-Radians)
 Mixed Optimization -- RFO/linear search
 Second derivative matrix not updated -- first step.
 The second derivative matrix:
                          R1        R2        A1        A2
           R1           1.27794
           R2           0.00000   1.27794
           A1           0.00000   0.00000   0.04867
           A2           0.00000   0.00000   0.00000   0.04867
 ITU=  0
     Eigenvalues ---    0.04867   0.04867   1.27794   1.27794
 RFO step:  Lambda=-3.62517212D-03 EMin= 4.86652021D-02
 Linear search not attempted -- first point.
 Iteration  1 RMS(Cart)=  0.02659283 RMS(Int)=  0.00000000
 Iteration  2 RMS(Cart)=  0.00000000 RMS(Int)=  0.00000001
 ClnCor:  largest displacement from symmetrization is 1.87D-13 for atom     1.
 Variable       Old X    -DE/DX   Delta X   Delta X   Delta X     New X
                                 (Linear)    (Quad)   (Total)
    R1        2.19208   0.04820   0.00000   0.03761   0.03761   2.22969
    R2        2.19208   0.04820   0.00000   0.03761   0.03761   2.22969
    A1        3.14159   0.00000   0.00000   0.00000   0.00000   3.14159
    A2        3.14159   0.00000   0.00000   0.00000   0.00000   3.14159
         Item               Value     Threshold  Converged?
 Maximum Force            0.048197     0.000450     NO 
 RMS     Force            0.034080     0.000300     NO 
 Maximum Displacement     0.037608     0.001800     NO 
 RMS     Displacement     0.026593     0.001200     NO 
 Predicted change in Energy=-1.817713D-03
 GradGradGradGradGradGradGradGradGradGradGradGradGradGradGradGradGradGrad

                          Input orientation:                          
 ---------------------------------------------------------------------
 Center     Atomic      Atomic             Coordinates (Angstroms)
 Number     Number       Type             X           Y           Z
 ---------------------------------------------------------------------
      1          6           0        0.000000    0.000000    0.000000
      2          8           0        0.000000    0.000000    1.179901
      3          8           0        0.000000    0.000000   -1.179901
 ---------------------------------------------------------------------
                    Distance matrix (angstroms):
                    1          2          3
     1  C    0.000000
     2  O    1.179901   0.000000
     3  O    1.179901   2.359803   0.000000
 Stoichiometry    CO2
 Framework group  D*H[O(C),C*(O.O)]
 Deg. of freedom     1
 Full point group                 D*H     NOp   8
 Largest Abelian subgroup         D2H     NOp   8
 Largest concise Abelian subgroup C2      NOp   2
                         Standard orientation:                         
 ---------------------------------------------------------------------
 Center     Atomic      Atomic             Coordinates (Angstroms)
 Number     Number       Type             X           Y           Z
 ---------------------------------------------------------------------
      1          6           0        0.000000    0.000000    0.000000
      2          8           0        0.000000    0.000000    1.179901
      3          8           0        0.000000    0.000000   -1.179901
 ---------------------------------------------------------------------
 Rotational constants (GHZ):      0.0000000     11.3478593     11.3478593
 Standard basis: 6-31G(d,p) (6D, 7F)
 There are    14 symmetry adapted cartesian basis functions of AG  symmetry.
 There are     2 symmetry adapted cartesian basis functions of B1G symmetry.
 There are     4 symmetry adapted cartesian basis functions of B2G symmetry.
 There are     4 symmetry adapted cartesian basis functions of B3G symmetry.
 There are     1 symmetry adapted cartesian basis functions of AU  symmetry.
 There are    10 symmetry adapted cartesian basis functions of B1U symmetry.
 There are     5 symmetry adapted cartesian basis functions of B2U symmetry.
 There are     5 symmetry adapted cartesian basis functions of B3U symmetry.
 There are    14 symmetry adapted basis functions of AG  symmetry.
 There are     2 symmetry adapted basis functions of B1G symmetry.
 There are     4 symmetry adapted basis functions of B2G symmetry.
 There are     4 symmetry adapted basis functions of B3G symmetry.
 There are     1 symmetry adapted basis functions of AU  symmetry.
 There are    10 symmetry adapted basis functions of B1U symmetry.
 There are     5 symmetry adapted basis functions of B2U symmetry.
 There are     5 symmetry adapted basis functions of B3U symmetry.
    45 basis functions,    84 primitive gaussians,    45 cartesian basis functions
    11 alpha electrons       11 beta electrons
       nuclear repulsion energy        57.4070770142 Hartrees.
 NAtoms=    3 NActive=    3 NUniq=    2 SFac= 2.25D+00 NAtFMM=   60 NAOKFM=F Big=F
 Integral buffers will be    131072 words long.
 Raffenetti 2 integral format.
 Two-electron integral symmetry is turned on.
 One-electron integrals computed using PRISM.
 NBasis=    45 RedAO= T EigKep=  4.52D-03  NBF=    14     2     4     4     1    10     5     5
 NBsUse=    45 1.00D-06 EigRej= -1.00D+00 NBFU=    14     2     4     4     1    10     5     5
 Initial guess from the checkpoint file:  "/tmp/allouche/5333/Gau-469.chk"
 B after Tr=     0.000000    0.000000    0.000000
         Rot=    1.000000    0.000000    0.000000    0.000000 Ang=   0.00 deg.
 Initial guess orbital symmetries:
       Occupied  (SGG) (SGU) (SGG) (SGG) (SGU) (SGG) (PIU) (PIU)
                 (SGU) (PIG) (PIG)
       Virtual   (SGG) (SGG) (SGG) (SGG) (DLTG) (SGG) (SGG) (DLTG)
                 (SGG) (SGG) (DLTG) (DLTG) (PIG) (PIG) (PIG) (PIG)
                 (PIG) (PIG) (DLTU) (SGU) (SGU) (SGU) (SGU) (DLTU)
                 (SGU) (SGU) (PIU) (PIU) (PIU) (PIU) (PIU) (PIU)
                 (PIU) (PIU)
 ExpMin= 1.69D-01 ExpMax= 5.48D+03 ExpMxC= 8.25D+02 IAcc=1 IRadAn=         1 AccDes= 0.00D+00
 Harris functional with IExCor=  402 and IRadAn=       1 diagonalized for initial guess.
 HarFok:  IExCor=  402 AccDes= 0.00D+00 IRadAn=         1 IDoV= 1 UseB2=F ITyADJ=14
 ICtDFT=  3500011 ScaDFX=  1.000000  1.000000  1.000000  1.000000
 FoFCou: FMM=F IPFlag=           0 FMFlag=      100000 FMFlg1=           0
         NFxFlg=           0 DoJE=T BraDBF=F KetDBF=T FulRan=T
         wScrn=  0.000000 ICntrl=     500 IOpCl=  0 I1Cent=   200000004 NGrid=           0
         NMat0=    1 NMatS0=      1 NMatT0=    0 NMatD0=    1 NMtDS0=    0 NMtDT0=    0
 Petite list used in FoFCou.
 Keep J ints in memory in symmetry-blocked form, NReq=1431462.
 Requested convergence on RMS density matrix=1.00D-08 within 128 cycles.
 Requested convergence on MAX density matrix=1.00D-06.
 Requested convergence on             energy=1.00D-06.
 No special actions if energy rises.
 Integral accuracy reduced to 1.0D-05 until final iterations.
 Initial convergence to 1.0D-05 achieved.  Increase integral accuracy.
 SCF Done:  E(RB-LYP) =  -188.563028411     A.U. after   10 cycles
            NFock= 10  Conv=0.11D-08     -V/T= 2.0091
 Calling FoFJK, ICntrl=      2527 FMM=F ISym2X=1 I1Cent= 0 IOpClX= 0 NMat=1 NMatS=1 NMatT=0.
 ***** Axes restored to original set *****
 -------------------------------------------------------------------
 Center     Atomic                   Forces (Hartrees/Bohr)
 Number     Number              X              Y              Z
 -------------------------------------------------------------------
      1        6           0.000000000    0.000000000    0.000000000
      2        8           0.000000000    0.000000000    0.005738552
      3        8           0.000000000    0.000000000   -0.005738552
 -------------------------------------------------------------------
 Cartesian Forces:  Max     0.005738552 RMS     0.002705179

 GradGradGradGradGradGradGradGradGradGradGradGradGradGradGradGradGradGrad
 Berny optimization.
 Using GEDIIS/GDIIS optimizer.
 Internal  Forces:  Max     0.005738552 RMS     0.004057769
 Search for a local minimum.
 Step number   2 out of a maximum of   20
 All quantities printed in internal units (Hartrees-Bohrs-Radians)
 Mixed Optimization -- RFO/linear search
 Update second derivatives using D2CorX and points    1    2
 DE= -1.99D-03 DEPred=-1.82D-03 R= 1.10D+00
 TightC=F SS=  1.41D+00  RLast= 5.32D-02 DXNew= 5.0454D-01 1.5956D-01
 Trust test= 1.10D+00 RLast= 5.32D-02 DXMaxT set to 3.00D-01
 The second derivative matrix:
                          R1        R2        A1        A2
           R1           1.20345
           R2          -0.07448   1.20345
           A1           0.00000   0.00000   0.04867
           A2           0.00000   0.00000   0.00000   0.04867
 ITU=  1  0
 Use linear search instead of GDIIS.
     Eigenvalues ---    0.04867   0.04867   1.12897   1.27794
 RFO step:  Lambda= 0.00000000D+00 EMin= 4.86652021D-02
 Quartic linear search produced a step of  0.14667.
 Iteration  1 RMS(Cart)=  0.00390027 RMS(Int)=  0.00000000
 Iteration  2 RMS(Cart)=  0.00000000 RMS(Int)=  0.00000000
 ClnCor:  largest displacement from symmetrization is 1.97D-13 for atom     1.
 Variable       Old X    -DE/DX   Delta X   Delta X   Delta X     New X
                                 (Linear)    (Quad)   (Total)
    R1        2.22969   0.00574   0.00552   0.00000   0.00552   2.23521
    R2        2.22969   0.00574   0.00552   0.00000   0.00552   2.23521
    A1        3.14159   0.00000   0.00000   0.00000   0.00000   3.14159
    A2        3.14159   0.00000   0.00000   0.00000   0.00000   3.14159
         Item               Value     Threshold  Converged?
 Maximum Force            0.005739     0.000450     NO 
 RMS     Force            0.004058     0.000300     NO 
 Maximum Displacement     0.005516     0.001800     NO 
 RMS     Displacement     0.003900     0.001200     NO 
 Predicted change in Energy=-2.895746D-05
 GradGradGradGradGradGradGradGradGradGradGradGradGradGradGradGradGradGrad

                          Input orientation:                          
 ---------------------------------------------------------------------
 Center     Atomic      Atomic             Coordinates (Angstroms)
 Number     Number       Type             X           Y           Z
 ---------------------------------------------------------------------
      1          6           0        0.000000    0.000000    0.000000
      2          8           0        0.000000    0.000000    1.182820
      3          8           0        0.000000    0.000000   -1.182820
 ---------------------------------------------------------------------
                    Distance matrix (angstroms):
                    1          2          3
     1  C    0.000000
     2  O    1.182820   0.000000
     3  O    1.182820   2.365640   0.000000
 Stoichiometry    CO2
 Framework group  D*H[O(C),C*(O.O)]
 Deg. of freedom     1
 Full point group                 D*H     NOp   8
 Largest Abelian subgroup         D2H     NOp   8
 Largest concise Abelian subgroup C2      NOp   2
                         Standard orientation:                         
 ---------------------------------------------------------------------
 Center     Atomic      Atomic             Coordinates (Angstroms)
 Number     Number       Type             X           Y           Z
 ---------------------------------------------------------------------
      1          6           0        0.000000    0.000000    0.000000
      2          8           0        0.000000    0.000000    1.182820
      3          8           0        0.000000    0.000000   -1.182820
 ---------------------------------------------------------------------
 Rotational constants (GHZ):      0.0000000     11.2919222     11.2919222
 Standard basis: 6-31G(d,p) (6D, 7F)
 There are    14 symmetry adapted cartesian basis functions of AG  symmetry.
 There are     2 symmetry adapted cartesian basis functions of B1G symmetry.
 There are     4 symmetry adapted cartesian basis functions of B2G symmetry.
 There are     4 symmetry adapted cartesian basis functions of B3G symmetry.
 There are     1 symmetry adapted cartesian basis functions of AU  symmetry.
 There are    10 symmetry adapted cartesian basis functions of B1U symmetry.
 There are     5 symmetry adapted cartesian basis functions of B2U symmetry.
 There are     5 symmetry adapted cartesian basis functions of B3U symmetry.
 There are    14 symmetry adapted basis functions of AG  symmetry.
 There are     2 symmetry adapted basis functions of B1G symmetry.
 There are     4 symmetry adapted basis functions of B2G symmetry.
 There are     4 symmetry adapted basis functions of B3G symmetry.
 There are     1 symmetry adapted basis functions of AU  symmetry.
 There are    10 symmetry adapted basis functions of B1U symmetry.
 There are     5 symmetry adapted basis functions of B2U symmetry.
 There are     5 symmetry adapted basis functions of B3U symmetry.
    45 basis functions,    84 primitive gaussians,    45 cartesian basis functions
    11 alpha electrons       11 beta electrons
       nuclear repulsion energy        57.2654137333 Hartrees.
 NAtoms=    3 NActive=    3 NUniq=    2 SFac= 2.25D+00 NAtFMM=   60 NAOKFM=F Big=F
 Integral buffers will be    131072 words long.
 Raffenetti 2 integral format.
 Two-electron integral symmetry is turned on.
 One-electron integrals computed using PRISM.
 NBasis=    45 RedAO= T EigKep=  4.53D-03  NBF=    14     2     4     4     1    10     5     5
 NBsUse=    45 1.00D-06 EigRej= -1.00D+00 NBFU=    14     2     4     4     1    10     5     5
 Initial guess from the checkpoint file:  "/tmp/allouche/5333/Gau-469.chk"
 B after Tr=     0.000000    0.000000    0.000000
         Rot=    1.000000    0.000000    0.000000    0.000000 Ang=   0.00 deg.
 Initial guess orbital symmetries:
       Occupied  (SGG) (SGU) (SGG) (SGG) (SGU) (SGG) (SGU) (PIU)
                 (PIU) (PIG) (PIG)
       Virtual   (SGG) (SGG) (SGG) (SGG) (DLTG) (SGG) (SGG) (DLTG)
                 (SGG) (SGG) (DLTG) (DLTG) (PIG) (PIG) (PIG) (PIG)
                 (PIG) (PIG) (DLTU) (SGU) (SGU) (SGU) (SGU) (DLTU)
                 (SGU) (SGU) (PIU) (PIU) (PIU) (PIU) (PIU) (PIU)
                 (PIU) (PIU)
 Keep J ints in memory in symmetry-blocked form, NReq=1431462.
 Requested convergence on RMS density matrix=1.00D-08 within 128 cycles.
 Requested convergence on MAX density matrix=1.00D-06.
 Requested convergence on             energy=1.00D-06.
 No special actions if energy rises.
 SCF Done:  E(RB-LYP) =  -188.563059929     A.U. after    7 cycles
            NFock=  7  Conv=0.11D-08     -V/T= 2.0092
 Calling FoFJK, ICntrl=      2527 FMM=F ISym2X=1 I1Cent= 0 IOpClX= 0 NMat=1 NMatS=1 NMatT=0.
 ***** Axes restored to original set *****
 -------------------------------------------------------------------
 Center     Atomic                   Forces (Hartrees/Bohr)
 Number     Number              X              Y              Z
 -------------------------------------------------------------------
      1        6           0.000000000    0.000000000    0.000000000
      2        8           0.000000000    0.000000000   -0.000004615
      3        8           0.000000000    0.000000000    0.000004615
 -------------------------------------------------------------------
 Cartesian Forces:  Max     0.000004615 RMS     0.000002175

 GradGradGradGradGradGradGradGradGradGradGradGradGradGradGradGradGradGrad
 Berny optimization.
 Using GEDIIS/GDIIS optimizer.
 Internal  Forces:  Max     0.000004615 RMS     0.000003263
 Search for a local minimum.
 Step number   3 out of a maximum of   20
 All quantities printed in internal units (Hartrees-Bohrs-Radians)
 Mixed Optimization -- En-DIIS/RFO-DIIS
 Update second derivatives using D2CorX and points    1    2    3
 DE= -3.15D-05 DEPred=-2.90D-05 R= 1.09D+00
 TightC=F SS=  1.41D+00  RLast= 7.80D-03 DXNew= 5.0454D-01 2.3402D-02
 Trust test= 1.09D+00 RLast= 7.80D-03 DXMaxT set to 3.00D-01
 The second derivative matrix:
                          R1        R2        A1        A2
           R1           1.15958
           R2          -0.11836   1.15958
           A1           0.00000   0.00000   0.04867
           A2           0.00000   0.00000   0.00000   0.04867
 ITU=  1  1  0
 Use linear search instead of GDIIS.
     Eigenvalues ---    0.04867   0.04867   1.04122   1.27794
 RFO step:  Lambda= 0.00000000D+00 EMin= 4.86652021D-02
 Quartic linear search produced a step of -0.00081.
 Iteration  1 RMS(Cart)=  0.00000317 RMS(Int)=  0.00000000
 Iteration  2 RMS(Cart)=  0.00000000 RMS(Int)=  0.00000000
 ClnCor:  largest displacement from symmetrization is 1.98D-13 for atom     1.
 Variable       Old X    -DE/DX   Delta X   Delta X   Delta X     New X
                                 (Linear)    (Quad)   (Total)
    R1        2.23521   0.00000   0.00000   0.00000   0.00000   2.23520
    R2        2.23521   0.00000   0.00000   0.00000   0.00000   2.23520
    A1        3.14159   0.00000   0.00000   0.00000   0.00000   3.14159
    A2        3.14159   0.00000   0.00000   0.00000   0.00000   3.14159
         Item               Value     Threshold  Converged?
 Maximum Force            0.000005     0.000450     YES
 RMS     Force            0.000003     0.000300     YES
 Maximum Displacement     0.000004     0.001800     YES
 RMS     Displacement     0.000003     0.001200     YES
 Predicted change in Energy=-2.045081D-11
 Optimization completed.
    -- Stationary point found.
                           ----------------------------
                           !   Optimized Parameters   !
                           ! (Angstroms and Degrees)  !
 --------------------------                            --------------------------
 ! Name  Definition              Value          Derivative Info.                !
 --------------------------------------------------------------------------------
 ! R1    R(1,2)                  1.1828         -DE/DX =    0.0                 !
 ! R2    R(1,3)                  1.1828         -DE/DX =    0.0                 !
 ! A1    L(2,1,3,-1,-1)        180.0            -DE/DX =    0.0                 !
 ! A2    L(2,1,3,-2,-2)        180.0            -DE/DX =    0.0                 !
 --------------------------------------------------------------------------------
 GradGradGradGradGradGradGradGradGradGradGradGradGradGradGradGradGradGrad

                          Input orientation:                          
 ---------------------------------------------------------------------
 Center     Atomic      Atomic             Coordinates (Angstroms)
 Number     Number       Type             X           Y           Z
 ---------------------------------------------------------------------
      1          6           0        0.000000    0.000000    0.000000
      2          8           0        0.000000    0.000000    1.182820
      3          8           0        0.000000    0.000000   -1.182820
 ---------------------------------------------------------------------
                    Distance matrix (angstroms):
                    1          2          3
     1  C    0.000000
     2  O    1.182820   0.000000
     3  O    1.182820   2.365640   0.000000
 Stoichiometry    CO2
 Framework group  D*H[O(C),C*(O.O)]
 Deg. of freedom     1
 Full point group                 D*H     NOp   8
 Largest Abelian subgroup         D2H     NOp   8
 Largest concise Abelian subgroup C2      NOp   2
                         Standard orientation:                         
 ---------------------------------------------------------------------
 Center     Atomic      Atomic             Coordinates (Angstroms)
 Number     Number       Type             X           Y           Z
 ---------------------------------------------------------------------
      1          6           0        0.000000    0.000000    0.000000
      2          8           0        0.000000    0.000000    1.182820
      3          8           0        0.000000    0.000000   -1.182820
 ---------------------------------------------------------------------
 Rotational constants (GHZ):      0.0000000     11.2919222     11.2919222

 **********************************************************************

            Population analysis using the SCF density.

 **********************************************************************

 Orbital symmetries:
       Occupied  (SGG) (SGU) (SGG) (SGG) (SGU) (SGG) (SGU) (PIU)
                 (PIU) (PIG) (PIG)
       Virtual   (PIU) (PIU) (SGG) (SGU) (PIU) (PIU) (SGG) (SGU)
                 (SGG) (PIG) (PIG) (SGU) (PIU) (PIU) (SGG) (PIG)
                 (PIG) (DLTG) (DLTG) (DLTU) (DLTU) (SGU) (DLTG)
                 (DLTG) (PIU) (PIU) (SGG) (SGU) (PIG) (PIG) (SGG)
                 (SGG) (SGG) (SGU)
 The electronic state is 1-SGG.
 Alpha  occ. eigenvalues --  -18.88049 -18.88047 -10.10945  -1.04608  -1.00864
 Alpha  occ. eigenvalues --   -0.48976  -0.44504  -0.44148  -0.44148  -0.31209
 Alpha  occ. eigenvalues --   -0.31209
 Alpha virt. eigenvalues --   -0.00614  -0.00614   0.04856   0.34233   0.44214
 Alpha virt. eigenvalues --    0.44214   0.53567   0.67765   0.74334   0.82111
 Alpha virt. eigenvalues --    0.82111   0.94644   0.98471   0.98471   1.32938
 Alpha virt. eigenvalues --    1.34691   1.34691   1.35465   1.35466   1.67240
 Alpha virt. eigenvalues --    1.67240   1.78466   1.95692   1.95693   2.03730
 Alpha virt. eigenvalues --    2.03730   2.60622   2.82272   2.86101   2.86101
 Alpha virt. eigenvalues --    2.95164   3.63874   4.26854   4.34503
          Condensed to atoms (all electrons):
               1          2          3
     1  C    4.199859   0.567263   0.567263
     2  O    0.567263   7.786765  -0.021220
     3  O    0.567263  -0.021220   7.786765
 Mulliken charges:
               1
     1  C    0.665616
     2  O   -0.332808
     3  O   -0.332808
 Sum of Mulliken charges =   0.00000
 Mulliken charges with hydrogens summed into heavy atoms:
               1
     1  C    0.665616
     2  O   -0.332808
     3  O   -0.332808
 Electronic spatial extent (au):  <R**2>=            115.3760
 Charge=             -0.00000000000002 electrons
 Dipole moment (field-independent basis, Debye):
    X=              0.00000000000000    Y=              0.00000000000000    Z=              0.00000000000000  Tot=              0.00000000000000
 Quadrupole moment (field-independent basis, Debye-Ang):
   XX=            -14.50839152126355   YY=            -14.50839152126343   ZZ=            -18.64808516932609
   XY=              0.00000000000000   XZ=              0.00000000000000   YZ=              0.00000000000000
 Traceless Quadrupole moment (field-independent basis, Debye-Ang):
   XX=              1.37989788268748   YY=              1.37989788268759   ZZ=             -2.75979576537507
   XY=              0.00000000000000   XZ=              0.00000000000000   YZ=              0.00000000000000
 Octapole moment (field-independent basis, Debye-Ang**2):
  XXX=              0.00000000000000  YYY=              0.00000000000000  ZZZ=              0.00000000000000  XYY=              0.00000000000000
  XXY=              0.00000000000000  XXZ=              0.00000000000000  XZZ=              0.00000000000000  YZZ=              0.00000000000000
  YYZ=              0.00000000000000  XYZ=              0.00000000000000
 Hexadecapole moment (field-independent basis, Debye-Ang**3):
 XXXX=            -10.47955140748461 YYYY=            -10.47955140748432 ZZZZ=           -101.79500930416730 XXXY=              0.00000000000000
 XXXZ=              0.00000000000000 YYYX=              0.00000000000000 YYYZ=              0.00000000000000 ZZZX=              0.00000000000000
 ZZZY=              0.00000000000000 XXYY=             -3.49318380249483 XXZZ=            -18.30485262561420 YYZZ=            -18.30485262561417
 XXYZ=              0.00000000000000 YYXZ=              0.00000000000000 ZZXY=              0.00000000000000
 N-N= 5.726541373325D+01 E-N=-5.575996181972D+02  KE= 1.868471484441D+02
 Symmetry AG   KE= 1.008045534094D+02
 Symmetry B1G  KE= 1.019138721596D-33
 Symmetry B2G  KE= 4.948246692284D+00
 Symmetry B3G  KE= 4.948246692284D+00
 Symmetry AU   KE= 1.876065150248D-34
 Symmetry B1U  KE= 6.897846456260D+01
 Symmetry B2U  KE= 3.583818543754D+00
 Symmetry B3U  KE= 3.583818543754D+00
 1\1\GINC-ILMFIXE086\FOpt\RBLYP\6-31G(d,p)\C1O2\ALLOUCHE\14-Feb-2018\0\
 \# BLYP/6-31G** Opt Freq\\Gaussian file generated by cchemi\\0,1\C,0.,
 0.,0.\O,0.,0.,1.1828201053\O,0.,0.,-1.1828201053\\Version=EM64L-G09Rev
 D.01\State=1-SGG\HF=-188.5630599\RMSD=1.135e-09\RMSF=2.175e-06\Dipole=
 0.,0.,0.\Quadrupole=1.0259203,1.0259203,-2.0518406,0.,0.,0.\PG=D*H [O(
 C1),C*(O1.O1)]\\@


  THE LARGE PRINT GIVETH,
  AND THE SMALL PRINT TAKETH AWAY.

                     -- TOM WAITS
 Job cpu time:       0 days  0 hours  0 minutes  5.3 seconds.
 File lengths (MBytes):  RWF=      5 Int=      0 D2E=      0 Chk=      1 Scr=      1
 Normal termination of Gaussian 09 at Wed Feb 14 19:55:43 2018.
 Link1:  Proceeding to internal job step number  2.
 ---------------------------------------------------------------------
 #N Geom=AllCheck Guess=TCheck SCRF=Check GenChk RBLYP/6-31G(d,p) Freq
 ---------------------------------------------------------------------
 1/10=4,29=7,30=1,38=1,40=1/1,3;
 2/12=2,40=1/2;
 3/5=1,6=6,7=101,11=2,14=-4,16=1,25=1,30=1,70=2,71=2,74=402,116=1,140=1/1,2,3;
 4/5=101/1;
 5/5=2,98=1/2;
 8/6=4,10=90,11=11/1;
 11/6=1,8=1,9=11,15=111,16=1/1,2,10;
 10/6=1/2;
 6/7=2,8=2,9=2,10=2,18=1,28=1/1;
 7/8=1,10=1,25=1/1,2,3,16;
 1/10=4,30=1/3;
 99//99;
 Structure from the checkpoint file:  "/tmp/allouche/5333/Gau-469.chk"
 ---------------------------------
 Gaussian file generated by cchemi
 ---------------------------------
 Charge =  0 Multiplicity = 1
 Redundant internal coordinates found in file.
 C,0,0.,0.,0.
 O,0,0.,0.,1.1828201053
 O,0,0.,0.,-1.1828201053
 Recover connectivity data from disk.

 GradGradGradGradGradGradGradGradGradGradGradGradGradGradGradGradGradGrad
 Berny optimization.
 Initialization pass.
                           ----------------------------
                           !    Initial Parameters    !
                           ! (Angstroms and Degrees)  !
 --------------------------                            --------------------------
 ! Name  Definition              Value          Derivative Info.                !
 --------------------------------------------------------------------------------
 ! R1    R(1,2)                  1.1828         calculate D2E/DX2 analytically  !
 ! R2    R(1,3)                  1.1828         calculate D2E/DX2 analytically  !
 ! A1    L(2,1,3,-1,-1)        180.0            calculate D2E/DX2 analytically  !
 ! A2    L(2,1,3,-2,-2)        180.0            calculate D2E/DX2 analytically  !
 --------------------------------------------------------------------------------
 Trust Radius=3.00D-01 FncErr=1.00D-07 GrdErr=1.00D-07
 Number of steps in this run=      2 maximum allowed number of steps=      2.
 GradGradGradGradGradGradGradGradGradGradGradGradGradGradGradGradGradGrad

                          Input orientation:                          
 ---------------------------------------------------------------------
 Center     Atomic      Atomic             Coordinates (Angstroms)
 Number     Number       Type             X           Y           Z
 ---------------------------------------------------------------------
      1          6           0        0.000000    0.000000    0.000000
      2          8           0        0.000000    0.000000    1.182820
      3          8           0        0.000000    0.000000   -1.182820
 ---------------------------------------------------------------------
                    Distance matrix (angstroms):
                    1          2          3
     1  C    0.000000
     2  O    1.182820   0.000000
     3  O    1.182820   2.365640   0.000000
 Stoichiometry    CO2
 Framework group  D*H[O(C),C*(O.O)]
 Deg. of freedom     1
 Full point group                 D*H     NOp   8
 Largest Abelian subgroup         D2H     NOp   8
 Largest concise Abelian subgroup C2      NOp   2
                         Standard orientation:                         
 ---------------------------------------------------------------------
 Center     Atomic      Atomic             Coordinates (Angstroms)
 Number     Number       Type             X           Y           Z
 ---------------------------------------------------------------------
      1          6           0        0.000000    0.000000    0.000000
      2          8           0        0.000000    0.000000    1.182820
      3          8           0        0.000000    0.000000   -1.182820
 ---------------------------------------------------------------------
 Rotational constants (GHZ):      0.0000000     11.2919222     11.2919222
 Standard basis: 6-31G(d,p) (6D, 7F)
 There are    14 symmetry adapted cartesian basis functions of AG  symmetry.
 There are     2 symmetry adapted cartesian basis functions of B1G symmetry.
 There are     4 symmetry adapted cartesian basis functions of B2G symmetry.
 There are     4 symmetry adapted cartesian basis functions of B3G symmetry.
 There are     1 symmetry adapted cartesian basis functions of AU  symmetry.
 There are    10 symmetry adapted cartesian basis functions of B1U symmetry.
 There are     5 symmetry adapted cartesian basis functions of B2U symmetry.
 There are     5 symmetry adapted cartesian basis functions of B3U symmetry.
 There are    14 symmetry adapted basis functions of AG  symmetry.
 There are     2 symmetry adapted basis functions of B1G symmetry.
 There are     4 symmetry adapted basis functions of B2G symmetry.
 There are     4 symmetry adapted basis functions of B3G symmetry.
 There are     1 symmetry adapted basis functions of AU  symmetry.
 There are    10 symmetry adapted basis functions of B1U symmetry.
 There are     5 symmetry adapted basis functions of B2U symmetry.
 There are     5 symmetry adapted basis functions of B3U symmetry.
    45 basis functions,    84 primitive gaussians,    45 cartesian basis functions
    11 alpha electrons       11 beta electrons
       nuclear repulsion energy        57.2654137333 Hartrees.
 NAtoms=    3 NActive=    3 NUniq=    2 SFac= 2.25D+00 NAtFMM=   60 NAOKFM=F Big=F
 Integral buffers will be    131072 words long.
 Raffenetti 2 integral format.
 Two-electron integral symmetry is turned on.
 One-electron integrals computed using PRISM.
 NBasis=    45 RedAO= T EigKep=  4.53D-03  NBF=    14     2     4     4     1    10     5     5
 NBsUse=    45 1.00D-06 EigRej= -1.00D+00 NBFU=    14     2     4     4     1    10     5     5
 Initial guess from the checkpoint file:  "/tmp/allouche/5333/Gau-469.chk"
 B after Tr=     0.000000    0.000000    0.000000
         Rot=    1.000000    0.000000    0.000000    0.000000 Ang=   0.00 deg.
 Initial guess orbital symmetries:
       Occupied  (SGG) (SGU) (SGG) (SGG) (SGU) (SGG) (SGU) (PIU)
                 (PIU) (PIG) (PIG)
       Virtual   (PIU) (PIU) (SGG) (SGU) (PIU) (PIU) (SGG) (SGU)
                 (SGG) (PIG) (PIG) (SGU) (PIU) (PIU) (SGG) (PIG)
                 (PIG) (DLTG) (DLTG) (DLTU) (DLTU) (SGU) (DLTG)
                 (DLTG) (PIU) (PIU) (SGG) (SGU) (PIG) (PIG) (SGG)
                 (SGG) (SGG) (SGU)
 Keep J ints in memory in symmetry-blocked form, NReq=1431462.
 Requested convergence on RMS density matrix=1.00D-08 within 128 cycles.
 Requested convergence on MAX density matrix=1.00D-06.
 Requested convergence on             energy=1.00D-06.
 No special actions if energy rises.
 SCF Done:  E(RB-LYP) =  -188.563059929     A.U. after    1 cycles
            NFock=  1  Conv=0.16D-09     -V/T= 2.0092
 Range of M.O.s used for correlation:     1    45
 NBasis=    45 NAE=    11 NBE=    11 NFC=     0 NFV=     0
 NROrb=     45 NOA=    11 NOB=    11 NVA=    34 NVB=    34
 Symmetrizing basis deriv contribution to polar:
 IMax=3 JMax=2 DiffMx= 0.00D+00
 G2DrvN: will do     4 centers at a time, making    1 passes.
 Calling FoFCou, ICntrl=  3507 FMM=F I1Cent=   0 AccDes= 0.00D+00.
 End of G2Drv F.D. properties file   721 does not exist.
 End of G2Drv F.D. properties file   722 does not exist.
 End of G2Drv F.D. properties file   788 does not exist.
          IDoAtm=111
          Differentiating once with respect to electric field.
                with respect to dipole field.
          Differentiating once with respect to nuclear coordinates.
 Keep J ints in memory in symmetry-blocked form, NReq=1406006.
          There are     9 degrees of freedom in the 1st order CPHF.  IDoFFX=4 NUNeed=     9.
      9 vectors produced by pass  0 Test12= 4.16D-15 1.11D-08 XBig12= 4.73D+01 4.65D+00.
 AX will form     9 AO Fock derivatives at one time.
      9 vectors produced by pass  1 Test12= 4.16D-15 1.11D-08 XBig12= 2.68D+01 2.32D+00.
      9 vectors produced by pass  2 Test12= 4.16D-15 1.11D-08 XBig12= 4.81D-02 7.98D-02.
      9 vectors produced by pass  3 Test12= 4.16D-15 1.11D-08 XBig12= 1.87D-04 5.43D-03.
      9 vectors produced by pass  4 Test12= 4.16D-15 1.11D-08 XBig12= 3.20D-07 2.00D-04.
      2 vectors produced by pass  5 Test12= 4.16D-15 1.11D-08 XBig12= 5.57D-09 2.35D-05.
      1 vectors produced by pass  6 Test12= 4.16D-15 1.11D-08 XBig12= 1.78D-11 1.67D-06.
      1 vectors produced by pass  7 Test12= 4.16D-15 1.11D-08 XBig12= 4.27D-15 2.70D-08.
 InvSVY:  IOpt=1 It=  1 EMax= 4.74D-16
 Solved reduced A of dimension    49 with     9 vectors.
 Isotropic polarizability for W=    0.000000       12.87 Bohr**3.
 End of Minotr F.D. properties file   721 does not exist.
 End of Minotr F.D. properties file   722 does not exist.
 End of Minotr F.D. properties file   788 does not exist.

 **********************************************************************

            Population analysis using the SCF density.

 **********************************************************************

 Orbital symmetries:
       Occupied  (SGG) (SGU) (SGG) (SGG) (SGU) (SGG) (SGU) (PIU)
                 (PIU) (PIG) (PIG)
       Virtual   (PIU) (PIU) (SGG) (SGU) (PIU) (PIU) (SGG) (SGU)
                 (SGG) (PIG) (PIG) (SGU) (PIU) (PIU) (SGG) (PIG)
                 (PIG) (DLTG) (DLTG) (DLTU) (DLTU) (SGU) (DLTG)
                 (DLTG) (PIU) (PIU) (SGG) (SGU) (PIG) (PIG) (SGG)
                 (SGG) (SGG) (SGU)
 The electronic state is 1-SGG.
 Alpha  occ. eigenvalues --  -18.88049 -18.88047 -10.10945  -1.04608  -1.00864
 Alpha  occ. eigenvalues --   -0.48976  -0.44504  -0.44148  -0.44148  -0.31209
 Alpha  occ. eigenvalues --   -0.31209
 Alpha virt. eigenvalues --   -0.00614  -0.00614   0.04856   0.34233   0.44214
 Alpha virt. eigenvalues --    0.44214   0.53567   0.67765   0.74334   0.82111
 Alpha virt. eigenvalues --    0.82111   0.94644   0.98471   0.98471   1.32938
 Alpha virt. eigenvalues --    1.34691   1.34691   1.35465   1.35466   1.67240
 Alpha virt. eigenvalues --    1.67240   1.78466   1.95692   1.95693   2.03730
 Alpha virt. eigenvalues --    2.03730   2.60622   2.82272   2.86101   2.86101
 Alpha virt. eigenvalues --    2.95164   3.63874   4.26854   4.34503
          Condensed to atoms (all electrons):
               1          2          3
     1  C    4.199859   0.567263   0.567263
     2  O    0.567263   7.786765  -0.021220
     3  O    0.567263  -0.021220   7.786765
 Mulliken charges:
               1
     1  C    0.665616
     2  O   -0.332808
     3  O   -0.332808
 Sum of Mulliken charges =   0.00000
 Mulliken charges with hydrogens summed into heavy atoms:
               1
     1  C    0.665616
     2  O   -0.332808
     3  O   -0.332808
 APT charges:
               1
     1  C    0.945791
     2  O   -0.472895
     3  O   -0.472895
 Sum of APT charges =   0.00000
 APT charges with hydrogens summed into heavy atoms:
               1
     1  C    0.945791
     2  O   -0.472895
     3  O   -0.472895
 Electronic spatial extent (au):  <R**2>=            115.3760
 Charge=              0.00000000000000 electrons
 Dipole moment (field-independent basis, Debye):
    X=              0.00000000000000    Y=              0.00000000000000    Z=              0.00000000000000  Tot=              0.00000000000000
 Quadrupole moment (field-independent basis, Debye-Ang):
   XX=            -14.50839152997956   YY=            -14.50839152997948   ZZ=            -18.64808502796630
   XY=              0.00000000000000   XZ=              0.00000000000000   YZ=              0.00000000000000
 Traceless Quadrupole moment (field-independent basis, Debye-Ang):
   XX=              1.37989783266222   YY=              1.37989783266230   ZZ=             -2.75979566532452
   XY=              0.00000000000000   XZ=              0.00000000000000   YZ=              0.00000000000000
 Octapole moment (field-independent basis, Debye-Ang**2):
  XXX=              0.00000000000000  YYY=              0.00000000000000  ZZZ=              0.00000000000000  XYY=              0.00000000000000
  XXY=              0.00000000000000  XXZ=              0.00000000000000  XZZ=              0.00000000000000  YZZ=              0.00000000000000
  YYZ=              0.00000000000000  XYZ=              0.00000000000000
 Hexadecapole moment (field-independent basis, Debye-Ang**3):
 XXXX=            -10.47955141724147 YYYY=            -10.47955141724124 ZZZZ=           -101.79500899734830 XXXY=              0.00000000000000
 XXXZ=              0.00000000000000 YYYX=              0.00000000000000 YYYZ=              0.00000000000000 ZZZX=              0.00000000000000
 ZZZY=              0.00000000000000 XXYY=             -3.49318380574712 XXZZ=            -18.30485260618820 YYZZ=            -18.30485260618815
 XXYZ=              0.00000000000000 YYXZ=              0.00000000000000 ZZXY=              0.00000000000000
 N-N= 5.726541373325D+01 E-N=-5.575996181549D+02  KE= 1.868471484146D+02
 Symmetry AG   KE= 1.008045534077D+02
 Symmetry B1G  KE= 1.019138723708D-33
 Symmetry B2G  KE= 4.948246688997D+00
 Symmetry B3G  KE= 4.948246688997D+00
 Symmetry AU   KE= 1.876065168864D-34
 Symmetry B1U  KE= 6.897846455731D+01
 Symmetry B2U  KE= 3.583818535805D+00
 Symmetry B3U  KE= 3.583818535805D+00
  Exact polarizability:   7.877   0.000   7.877   0.000   0.000  22.842
 Approx polarizability:  11.381   0.000  11.381   0.000   0.000  63.761
 Calling FoFJK, ICntrl=    100527 FMM=F ISym2X=1 I1Cent= 0 IOpClX= 0 NMat=1 NMatS=1 NMatT=0.
 Full mass-weighted force constant matrix:
 Low frequencies ---    0.0008    0.0008    0.0014    2.1077    2.1077  601.3584
 Low frequencies ---  601.3584 1304.7716 2347.0820
 Diagonal vibrational polarizability:
        1.6092547       1.6092547       2.0910282
 Harmonic frequencies (cm**-1), IR intensities (KM/Mole), Raman scattering
 activities (A**4/AMU), depolarization ratios for plane and unpolarized
 incident light, reduced masses (AMU), force constants (mDyne/A),
 and normal coordinates:
                      1                      2                      3
                     PIU                    PIU                    SGG
 Frequencies --    601.35835754693100               601.35835756188940              1304.77159429867100
 Red. masses --     12.87736770356858                12.87736770356858                15.99491464000000
 Frc consts  --      2.74374637993127                 2.74374638006777                16.04357241500373
 IR Inten    --     21.62511290445351                21.62511290770238                 0.00000000000000
  Atom  AN      X      Y      Z        X      Y      Z        X      Y      Z
     1   6     0.856896977043  -0.214724082726   0.000000000010     0.214724082726   0.856896977043   0.000000000000    -0.000000000009  -0.000000000006   0.000000000001
     2   8    -0.321438530807   0.080547131720   0.000000000001    -0.080547131720  -0.321438530807   0.000000000005     0.000000000004   0.000000000002   0.707106781186
     3   8    -0.321438530807   0.080547131720  -0.000000000009    -0.080547131720  -0.321438530807  -0.000000000005     0.000000000004   0.000000000002  -0.707106781187
                      4
                     SGU
 Frequencies --   2347.08198135413100
 Red. masses --     12.87736770356858
 Frc consts  --     41.79590959715695
 IR Inten    --    428.03896958782610
  Atom  AN      X      Y      Z
     1   6    -0.000000000010   0.000000000002   0.883390548381
     2   8     0.000000000004  -0.000000000001  -0.331376778782
     3   8     0.000000000004  -0.000000000001  -0.331376778781

 -------------------
 - Thermochemistry -
 -------------------
 Temperature   298.150 Kelvin.  Pressure   1.00000 Atm.
 Atom     1 has atomic number  6 and mass  12.00000
 Atom     2 has atomic number  8 and mass  15.99491
 Atom     3 has atomic number  8 and mass  15.99491
 Molecular mass:    43.98983 amu.
 Principal axes and moments of inertia in atomic units:
                           1         2         3
     Eigenvalues --     0.00000 159.82586 159.82586
           X            0.00000   0.70711   0.70711
           Y            0.00000   0.70711  -0.70711
           Z            1.00000   0.00000   0.00000
 This molecule is a prolate symmetric top.
 Rotational symmetry number  2.
 Rotational temperature (Kelvin)      0.54193
 Rotational constant (GHZ):          11.291922
 Zero-point vibrational energy      29036.8 (Joules/Mol)
                                    6.93996 (Kcal/Mol)
 Warning -- explicit consideration of   2 degrees of freedom as
           vibrations may cause significant error
 Vibrational temperatures:    865.22   865.22  1877.27  3376.92
          (Kelvin)
 
 Zero-point correction=                           0.011060 (Hartree/Particle)
 Thermal correction to Energy=                    0.013750
 Thermal correction to Enthalpy=                  0.014694
 Thermal correction to Gibbs Free Energy=        -0.009700
 Sum of electronic and zero-point Energies=           -188.552000
 Sum of electronic and thermal Energies=              -188.549310
 Sum of electronic and thermal Enthalpies=            -188.548366
 Sum of electronic and thermal Free Energies=         -188.572760
 
                     E (Thermal)             CV                S
                      KCal/Mol        Cal/Mol-Kelvin    Cal/Mol-Kelvin
 Total                    8.628              7.175             51.341
 Electronic               0.000              0.000              0.000
 Translational            0.889              2.981             37.270
 Rotational               0.592              1.987             13.149
 Vibrational              7.147              2.207              0.922
 Vibration     1          0.960              1.029              0.447
 Vibration     2          0.960              1.029              0.447
                       Q            Log10(Q)             Ln(Q)
 Total Bot       0.289598D+05          4.461796         10.273665
 Total V=0       0.353845D+10          9.548813         21.986955
 Vib (Bot)       0.918010D-05         -5.037152        -11.598472
 Vib (Bot)    1  0.247957D+00         -0.605623         -1.394499
 Vib (Bot)    2  0.247957D+00         -0.605623         -1.394499
 Vib (V=0)       0.112167D+01          0.049865          0.114818
 Vib (V=0)    1  0.105811D+01          0.024529          0.056481
 Vib (V=0)    2  0.105811D+01          0.024529          0.056481
 Electronic      0.100000D+01          0.000000          0.000000
 Translational   0.114679D+08          7.059484         16.255062
 Rotational      0.275084D+03          2.439465          5.617075
 ***** Axes restored to original set *****
 -------------------------------------------------------------------
 Center     Atomic                   Forces (Hartrees/Bohr)
 Number     Number              X              Y              Z
 -------------------------------------------------------------------
      1        6           0.000000000    0.000000000    0.000000000
      2        8           0.000000000    0.000000000   -0.000004612
      3        8           0.000000000    0.000000000    0.000004612
 -------------------------------------------------------------------
 Cartesian Forces:  Max     0.000004612 RMS     0.000002174
 FormGI is forming the generalized inverse of G from B-inverse, IUseBI=4.

 GradGradGradGradGradGradGradGradGradGradGradGradGradGradGradGradGradGrad
 Berny optimization.
 Internal  Forces:  Max     0.000004612 RMS     0.000003261
 Search for a local minimum.
 Step number   1 out of a maximum of    2
 All quantities printed in internal units (Hartrees-Bohrs-Radians)
 Second derivative matrix not updated -- analytic derivatives used.
 The second derivative matrix:
                          R1        R2        A1        A2
           R1           0.97005
           R2           0.06043   0.97005
           A1           0.00000   0.00000   0.14916
           A2           0.00000   0.00000   0.00000   0.14916
 ITU=  0
     Eigenvalues ---    0.14916   0.14916   0.90962   1.03049
 Angle between quadratic step and forces=   0.00 degrees.
 Linear search not attempted -- first point.
 Iteration  1 RMS(Cart)=  0.00000316 RMS(Int)=  0.00000000
 Iteration  2 RMS(Cart)=  0.00000000 RMS(Int)=  0.00000000
 ClnCor:  largest displacement from symmetrization is 5.44D-14 for atom     1.
 Variable       Old X    -DE/DX   Delta X   Delta X   Delta X     New X
                                 (Linear)    (Quad)   (Total)
    R1        2.23521   0.00000   0.00000   0.00000   0.00000   2.23520
    R2        2.23521   0.00000   0.00000   0.00000   0.00000   2.23520
    A1        3.14159   0.00000   0.00000   0.00000   0.00000   3.14159
    A2        3.14159   0.00000   0.00000   0.00000   0.00000   3.14159
         Item               Value     Threshold  Converged?
 Maximum Force            0.000005     0.000450     YES
 RMS     Force            0.000003     0.000300     YES
 Maximum Displacement     0.000004     0.001800     YES
 RMS     Displacement     0.000003     0.001200     YES
 Predicted change in Energy=-2.063888D-11
 Optimization completed.
    -- Stationary point found.
                           ----------------------------
                           !   Optimized Parameters   !
                           ! (Angstroms and Degrees)  !
 --------------------------                            --------------------------
 ! Name  Definition              Value          Derivative Info.                !
 --------------------------------------------------------------------------------
 ! R1    R(1,2)                  1.1828         -DE/DX =    0.0                 !
 ! R2    R(1,3)                  1.1828         -DE/DX =    0.0                 !
 ! A1    L(2,1,3,-1,-1)        180.0            -DE/DX =    0.0                 !
 ! A2    L(2,1,3,-2,-2)        180.0            -DE/DX =    0.0                 !
 --------------------------------------------------------------------------------
 GradGradGradGradGradGradGradGradGradGradGradGradGradGradGradGradGradGrad

 1\1\GINC-ILMFIXE086\Freq\RBLYP\6-31G(d,p)\C1O2\ALLOUCHE\14-Feb-2018\0\
 \#N Geom=AllCheck Guess=TCheck SCRF=Check GenChk RBLYP/6-31G(d,p) Freq
 \\Gaussian file generated by cchemi\\0,1\C,0.,0.,0.\O,0.,0.,1.18282010
 53\O,0.,0.,-1.1828201053\\Version=EM64L-G09RevD.01\State=1-SGG\HF=-188
 .5630599\RMSD=1.576e-10\RMSF=2.174e-06\ZeroPoint=0.0110595\Thermal=0.0
 137495\Dipole=0.,0.,0.\DipoleDeriv=0.4399709,0.,0.,0.,0.4399709,0.,0.,
 0.,1.957431,-0.2199855,0.,0.,0.,-0.2199855,0.,0.,0.,-0.9787155,-0.2199
 855,0.,0.,0.,-0.2199855,0.,0.,0.,-0.9787155\Polar=7.876554,0.,7.876554
 ,0.,0.,22.8424039\PG=D*H [O(C1),C*(O1.O1)]\NImag=0\\0.11942604,0.,0.11
 942604,0.,0.,1.81923522,-0.05971302,0.,0.,0.02985786,0.,-0.05971302,0.
 ,0.,0.02985786,0.,0.,-0.90961761,0.,0.,0.97005212,-0.05971302,0.,0.,0.
 02985517,0.,0.,0.02985786,0.,-0.05971302,0.,0.,0.02985517,0.,0.,0.0298
 5786,0.,0.,-0.90961761,0.,0.,-0.06043451,0.,0.,0.97005212\\0.,0.,0.,0.
 ,0.,0.00000461,0.,0.,-0.00000461\\\@


 LOGIC IS A SYSTEMATIC METHOD OF COMING TO THE
 WRONG CONCLUSION WITH CONFIDENCE.
 Job cpu time:       0 days  0 hours  0 minutes  4.3 seconds.
 File lengths (MBytes):  RWF=      5 Int=      0 D2E=      0 Chk=      1 Scr=      1
 Normal termination of Gaussian 09 at Wed Feb 14 19:55:47 2018.
