 Entering Gaussian System, Link 0=/opt/local/Softwares/G09DSrc-Corr5/g09/g09
 Initial command:
 /opt/local/Softwares/G09DSrc-Corr5/g09/l1.exe "/tmp/allouche/2819/Gau-30224.inp" -scrdir="/tmp/allouche/2819/"
 Entering Link 1 = /opt/local/Softwares/G09DSrc-Corr5/g09/l1.exe PID=     30226.
  
 Copyright (c) 1988,1990,1992,1993,1995,1998,2003,2009,2013,
            Gaussian, Inc.  All Rights Reserved.
  
 This is part of the Gaussian(R) 09 program.  It is based on
 the Gaussian(R) 03 system (copyright 2003, Gaussian, Inc.),
 the Gaussian(R) 98 system (copyright 1998, Gaussian, Inc.),
 the Gaussian(R) 94 system (copyright 1995, Gaussian, Inc.),
 the Gaussian 92(TM) system (copyright 1992, Gaussian, Inc.),
 the Gaussian 90(TM) system (copyright 1990, Gaussian, Inc.),
 the Gaussian 88(TM) system (copyright 1988, Gaussian, Inc.),
 the Gaussian 86(TM) system (copyright 1986, Carnegie Mellon
 University), and the Gaussian 82(TM) system (copyright 1983,
 Carnegie Mellon University). Gaussian is a federally registered
 trademark of Gaussian, Inc.
  
 This software contains proprietary and confidential information,
 including trade secrets, belonging to Gaussian, Inc.
  
 This software is provided under written license and may be
 used, copied, transmitted, or stored only in accord with that
 written license.
  
 The following legend is applicable only to US Government
 contracts under FAR:
  
                    RESTRICTED RIGHTS LEGEND
  
 Use, reproduction and disclosure by the US Government is
 subject to restrictions as set forth in subparagraphs (a)
 and (c) of the Commercial Computer Software - Restricted
 Rights clause in FAR 52.227-19.
  
 Gaussian, Inc.
 340 Quinnipiac St., Bldg. 40, Wallingford CT 06492
  
  
 ---------------------------------------------------------------
 Warning -- This program may not be used in any manner that
 competes with the business of Gaussian, Inc. or will provide
 assistance to any competitor of Gaussian, Inc.  The licensee
 of this program is prohibited from giving any competitor of
 Gaussian, Inc. access to this program.  By using this program,
 the user acknowledges that Gaussian, Inc. is engaged in the
 business of creating and licensing software in the field of
 computational chemistry and represents and warrants to the
 licensee that it is not a competitor of Gaussian, Inc. and that
 it will not use this program in any manner prohibited above.
 ---------------------------------------------------------------
  

 Cite this work as:
 Gaussian 09, Revision D.01,
 M. J. Frisch, G. W. Trucks, H. B. Schlegel, G. E. Scuseria, 
 M. A. Robb, J. R. Cheeseman, G. Scalmani, V. Barone, B. Mennucci, 
 G. A. Petersson, H. Nakatsuji, M. Caricato, X. Li, H. P. Hratchian, 
 A. F. Izmaylov, J. Bloino, G. Zheng, J. L. Sonnenberg, M. Hada, 
 M. Ehara, K. Toyota, R. Fukuda, J. Hasegawa, M. Ishida, T. Nakajima, 
 Y. Honda, O. Kitao, H. Nakai, T. Vreven, J. A. Montgomery, Jr., 
 J. E. Peralta, F. Ogliaro, M. Bearpark, J. J. Heyd, E. Brothers, 
 K. N. Kudin, V. N. Staroverov, T. Keith, R. Kobayashi, J. Normand, 
 K. Raghavachari, A. Rendell, J. C. Burant, S. S. Iyengar, J. Tomasi, 
 M. Cossi, N. Rega, J. M. Millam, M. Klene, J. E. Knox, J. B. Cross, 
 V. Bakken, C. Adamo, J. Jaramillo, R. Gomperts, R. E. Stratmann, 
 O. Yazyev, A. J. Austin, R. Cammi, C. Pomelli, J. W. Ochterski, 
 R. L. Martin, K. Morokuma, V. G. Zakrzewski, G. A. Voth, 
 P. Salvador, J. J. Dannenberg, S. Dapprich, A. D. Daniels, 
 O. Farkas, J. B. Foresman, J. V. Ortiz, J. Cioslowski, 
 and D. J. Fox, Gaussian, Inc., Wallingford CT, 2013.
 
 ******************************************
 Gaussian 09:  EM64L-G09RevD.01 24-Apr-2013
                14-Feb-2018 
 ******************************************
 -----------------------
 # BLYP/6-311G* Opt Freq
 -----------------------
 1/14=-1,18=20,19=15,26=3,38=1/1,3;
 2/9=110,12=2,17=6,18=5,40=1/2;
 3/5=4,6=6,7=1,11=2,16=1,25=1,30=1,71=1,74=402/1,2,3;
 4//1;
 5/5=2,38=5/2;
 6/7=2,8=2,9=2,10=2,28=1/1;
 7//1,2,3,16;
 1/14=-1,18=20,19=15,26=3/3(2);
 2/9=110/2;
 99//99;
 2/9=110/2;
 3/5=4,6=6,7=1,11=2,16=1,25=1,30=1,71=1,74=402/1,2,3;
 4/5=5,16=3,69=1/1;
 5/5=2,38=5/2;
 7//1,2,3,16;
 1/14=-1,18=20,19=15,26=3/3(-5);
 2/9=110/2;
 6/7=2,8=2,9=2,10=2,19=2,28=1/1;
 99/9=1/99;
 ---------------------------------
 Gaussian file generated by cchemi
 ---------------------------------
 Symbolic Z-matrix:
 Charge =  0 Multiplicity = 1
 H                    0     0.6      -0.44454  -0.19577 
 H                    0     0.1       0.97655  -0.71769 
 O                    0     0.6       0.46799   0.09323 
 

 GradGradGradGradGradGradGradGradGradGradGradGradGradGradGradGradGradGrad
 Berny optimization.
 Initialization pass.
                           ----------------------------
                           !    Initial Parameters    !
                           ! (Angstroms and Degrees)  !
 --------------------------                            --------------------------
 ! Name  Definition              Value          Derivative Info.                !
 --------------------------------------------------------------------------------
 ! R1    R(1,3)                  0.9572         estimate D2E/DX2                !
 ! R2    R(2,3)                  1.0799         estimate D2E/DX2                !
 ! A1    A(1,3,2)              102.8398         estimate D2E/DX2                !
 --------------------------------------------------------------------------------
 Trust Radius=3.00D-01 FncErr=1.00D-07 GrdErr=1.00D-06
 Number of steps in this run=     20 maximum allowed number of steps=    100.
 GradGradGradGradGradGradGradGradGradGradGradGradGradGradGradGradGradGrad

                          Input orientation:                          
 ---------------------------------------------------------------------
 Center     Atomic      Atomic             Coordinates (Angstroms)
 Number     Number       Type             X           Y           Z
 ---------------------------------------------------------------------
      1          1           0        0.600000   -0.444539   -0.195772
      2          1           0        0.100000    0.976550   -0.717694
      3          8           0        0.600000    0.467990    0.093231
 ---------------------------------------------------------------------
                    Distance matrix (angstroms):
                    1          2          3
     1  H    0.000000
     2  H    1.594333   0.000000
     3  O    0.957200   1.079923   0.000000
 Stoichiometry    H2O
 Framework group  CS[SG(H2O)]
 Deg. of freedom     3
 Full point group                 CS      NOp   2
 Largest Abelian subgroup         CS      NOp   2
 Largest concise Abelian subgroup C1      NOp   1
                         Standard orientation:                         
 ---------------------------------------------------------------------
 Center     Atomic      Atomic             Coordinates (Angstroms)
 Number     Number       Type             X           Y           Z
 ---------------------------------------------------------------------
      1          1           0        0.791105   -0.411475    0.000000
      2          1           0       -0.791105   -0.607711    0.000000
      3          8           0        0.000000    0.127398    0.000000
 ---------------------------------------------------------------------
 Rotational constants (GHZ):    719.9250977    387.1923470    251.7795105
 Standard basis: 6-311G(d) (5D, 7F)
 There are    20 symmetry adapted cartesian basis functions of A'  symmetry.
 There are     5 symmetry adapted cartesian basis functions of A"  symmetry.
 There are    19 symmetry adapted basis functions of A'  symmetry.
 There are     5 symmetry adapted basis functions of A"  symmetry.
    24 basis functions,    42 primitive gaussians,    25 cartesian basis functions
     5 alpha electrons        5 beta electrons
       nuclear repulsion energy         8.6747333347 Hartrees.
 NAtoms=    3 NActive=    3 NUniq=    3 SFac= 1.00D+00 NAtFMM=   60 NAOKFM=F Big=F
 Integral buffers will be    131072 words long.
 Raffenetti 2 integral format.
 Two-electron integral symmetry is turned on.
 One-electron integrals computed using PRISM.
 NBasis=    24 RedAO= T EigKep=  6.72D-02  NBF=    19     5
 NBsUse=    24 1.00D-06 EigRej= -1.00D+00 NBFU=    19     5
 ExpMin= 1.03D-01 ExpMax= 8.59D+03 ExpMxC= 1.30D+03 IAcc=1 IRadAn=         1 AccDes= 0.00D+00
 Harris functional with IExCor=  402 and IRadAn=       1 diagonalized for initial guess.
 HarFok:  IExCor=  402 AccDes= 0.00D+00 IRadAn=         1 IDoV= 1 UseB2=F ITyADJ=14
 ICtDFT=  3500011 ScaDFX=  1.000000  1.000000  1.000000  1.000000
 FoFCou: FMM=F IPFlag=           0 FMFlag=      100000 FMFlg1=           0
         NFxFlg=           0 DoJE=T BraDBF=F KetDBF=T FulRan=T
         wScrn=  0.000000 ICntrl=     500 IOpCl=  0 I1Cent=   200000004 NGrid=           0
         NMat0=    1 NMatS0=      1 NMatT0=    0 NMatD0=    1 NMtDS0=    0 NMtDT0=    0
 Petite list used in FoFCou.
 Initial guess orbital symmetries:
       Occupied  (A') (A') (A') (A') (A")
       Virtual   (A') (A') (A') (A') (A") (A') (A') (A') (A') (A')
                 (A') (A") (A") (A') (A') (A") (A') (A') (A')
 The electronic state of the initial guess is 1-A'.
 Keep J ints in memory in symmetry-blocked form, NReq=926451.
 Requested convergence on RMS density matrix=1.00D-08 within 128 cycles.
 Requested convergence on MAX density matrix=1.00D-06.
 Requested convergence on             energy=1.00D-06.
 No special actions if energy rises.
 Integral accuracy reduced to 1.0D-05 until final iterations.
 Initial convergence to 1.0D-05 achieved.  Increase integral accuracy.
 SCF Done:  E(RB-LYP) =  -76.4076525354     A.U. after   11 cycles
            NFock= 11  Conv=0.18D-08     -V/T= 2.0013

 **********************************************************************

            Population analysis using the SCF density.

 **********************************************************************

 Orbital symmetries:
       Occupied  (A') (A') (A') (A') (A")
       Virtual   (A') (A') (A') (A') (A") (A') (A') (A') (A') (A')
                 (A') (A") (A") (A') (A') (A") (A') (A') (A')
 The electronic state is 1-A'.
 Alpha  occ. eigenvalues --  -18.75171  -0.89213  -0.44755  -0.31211  -0.23014
 Alpha virt. eigenvalues --   -0.01378   0.06667   0.30261   0.37194   0.71771
 Alpha virt. eigenvalues --    0.73778   0.83736   1.10363   1.95108   2.02372
 Alpha virt. eigenvalues --    2.69072   2.71030   2.73511   2.97994   3.31057
 Alpha virt. eigenvalues --    4.62695   4.69799   4.82075  49.28305
          Condensed to atoms (all electrons):
               1          2          3
     1  H    0.421801  -0.039482   0.233356
     2  H   -0.039482   0.455316   0.232494
     3  O    0.233356   0.232494   8.270146
 Mulliken charges:
               1
     1  H    0.384324
     2  H    0.351672
     3  O   -0.735996
 Sum of Mulliken charges =   0.00000
 Mulliken charges with hydrogens summed into heavy atoms:
               1
     3  O    0.000000
 Electronic spatial extent (au):  <R**2>=             20.2458
 Charge=             -0.00000000000001 electrons
 Dipole moment (field-independent basis, Debye):
    X=              0.16593856534394    Y=             -2.22966588041527    Z=              0.00000000000000  Tot=              2.23583218193057
 Quadrupole moment (field-independent basis, Debye-Ang):
   XX=             -4.41368514052565   YY=             -6.12276863186657   ZZ=             -7.47193307560500
   XY=              0.26189952299225   XZ=              0.00000000000000   YZ=              0.00000000000000
 Traceless Quadrupole moment (field-independent basis, Debye-Ang):
   XX=              1.58911047547342   YY=             -0.11997301586750   ZZ=             -1.46913745960593
   XY=              0.26189952299225   XZ=              0.00000000000000   YZ=              0.00000000000000
 Octapole moment (field-independent basis, Debye-Ang**2):
  XXX=              0.32304031590983  YYY=             -1.24307896011309  ZZZ=              0.00000000000000  XYY=             -0.14599358407247
  XXY=             -1.24125795046326  XXZ=              0.00000000000000  XZZ=              0.11112802532695  YZZ=             -0.30640918177504
  YYZ=              0.00000000000000  XYZ=              0.00000000000000
 Hexadecapole moment (field-independent basis, Debye-Ang**3):
 XXXX=             -7.05550438866048 YYYY=             -7.12222274924777 ZZZZ=             -5.77940765448950 XXXY=             -0.16984089839401
 XXXZ=              0.00000000000000 YYYX=             -0.10415755486248 YYYZ=              0.00000000000000 ZZZX=              0.00000000000000
 ZZZY=              0.00000000000000 XXYY=             -1.97666463555106 XXZZ=             -2.39632283683863 YYZZ=             -2.22303027870979
 XXYZ=              0.00000000000000 YYXZ=              0.00000000000000 ZZXY=             -0.11754737105798
 N-N= 8.674733334742D+00 E-N=-1.985200988775D+02  KE= 7.630581666363D+01
 Symmetry A'   KE= 7.158431108901D+01
 Symmetry A"   KE= 4.721505574622D+00
 Calling FoFJK, ICntrl=      2527 FMM=F ISym2X=1 I1Cent= 0 IOpClX= 0 NMat=1 NMatS=1 NMatT=0.
 ***** Axes restored to original set *****
 -------------------------------------------------------------------
 Center     Atomic                   Forces (Hartrees/Bohr)
 Number     Number              X              Y              Z
 -------------------------------------------------------------------
      1        1           0.000154485   -0.017896143   -0.005367493
      2        1           0.030503110   -0.030744072    0.049560543
      3        8          -0.030657595    0.048640215   -0.044193050
 -------------------------------------------------------------------
 Cartesian Forces:  Max     0.049560543 RMS     0.033232807

 GradGradGradGradGradGradGradGradGradGradGradGradGradGradGradGradGradGrad
 Berny optimization.
 FormGI is forming the generalized inverse of G from B-inverse, IUseBI=4.
 Internal  Forces:  Max     0.065816584 RMS     0.039501792
 Search for a local minimum.
 Step number   1 out of a maximum of   20
 All quantities printed in internal units (Hartrees-Bohrs-Radians)
 Mixed Optimization -- RFO/linear search
 Second derivative matrix not updated -- first step.
 The second derivative matrix:
                          R1        R2        A1
           R1           0.56080
           R2           0.00000   0.36004
           A1           0.00000   0.00000   0.16000
 ITU=  0
     Eigenvalues ---    0.16000   0.36004   0.56080
 RFO step:  Lambda=-1.22468523D-02 EMin= 1.60000000D-01
 Linear search not attempted -- first point.
 Iteration  1 RMS(Cart)=  0.07640513 RMS(Int)=  0.00148163
 Iteration  2 RMS(Cart)=  0.00129036 RMS(Int)=  0.00000121
 Iteration  3 RMS(Cart)=  0.00000121 RMS(Int)=  0.00000000
 Iteration  4 RMS(Cart)=  0.00000000 RMS(Int)=  0.00000000
 ClnCor:  largest displacement from symmetrization is 7.22D-16 for atom     2.
 Variable       Old X    -DE/DX   Delta X   Delta X   Delta X     New X
                                 (Linear)    (Quad)   (Total)
    R1        1.80885   0.01868   0.00000   0.03260   0.03260   1.84145
    R2        2.04076  -0.06582   0.00000  -0.17679  -0.17679   1.86397
    A1        1.79489   0.00059   0.00000   0.00341   0.00341   1.79831
         Item               Value     Threshold  Converged?
 Maximum Force            0.065817     0.000450     NO 
 RMS     Force            0.039502     0.000300     NO 
 Maximum Displacement     0.065631     0.001800     NO 
 RMS     Displacement     0.076172     0.001200     NO 
 Predicted change in Energy=-6.321394D-03
 GradGradGradGradGradGradGradGradGradGradGradGradGradGradGradGradGradGrad

                          Input orientation:                          
 ---------------------------------------------------------------------
 Center     Atomic      Atomic             Coordinates (Angstroms)
 Number     Number       Type             X           Y           Z
 ---------------------------------------------------------------------
      1          1           0        0.594155   -0.438660   -0.205274
      2          1           0        0.123487    0.942047   -0.682963
      3          8           0        0.582359    0.496614    0.068002
 ---------------------------------------------------------------------
                    Distance matrix (angstroms):
                    1          2          3
     1  H    0.000000
     2  H    1.534948   0.000000
     3  O    0.974452   0.986369   0.000000
 Stoichiometry    H2O
 Framework group  CS[SG(H2O)]
 Deg. of freedom     3
 Full point group                 CS      NOp   2
 Largest Abelian subgroup         CS      NOp   2
 Largest concise Abelian subgroup C1      NOp   1
                         Standard orientation:                         
 ---------------------------------------------------------------------
 Center     Atomic      Atomic             Coordinates (Angstroms)
 Number     Number       Type             X           Y           Z
 ---------------------------------------------------------------------
      1          1           0        0.767414   -0.478505    0.000000
      2          1           0       -0.767414   -0.497656    0.000000
      3          8           0        0.000000    0.122020    0.000000
 ---------------------------------------------------------------------
 Rotational constants (GHZ):    758.7498470    425.5867404    272.6538026
 Standard basis: 6-311G(d) (5D, 7F)
 There are    20 symmetry adapted cartesian basis functions of A'  symmetry.
 There are     5 symmetry adapted cartesian basis functions of A"  symmetry.
 There are    19 symmetry adapted basis functions of A'  symmetry.
 There are     5 symmetry adapted basis functions of A"  symmetry.
    24 basis functions,    42 primitive gaussians,    25 cartesian basis functions
     5 alpha electrons        5 beta electrons
       nuclear repulsion energy         8.9810860291 Hartrees.
 NAtoms=    3 NActive=    3 NUniq=    3 SFac= 1.00D+00 NAtFMM=   60 NAOKFM=F Big=F
 Integral buffers will be    131072 words long.
 Raffenetti 2 integral format.
 Two-electron integral symmetry is turned on.
 One-electron integrals computed using PRISM.
 NBasis=    24 RedAO= T EigKep=  6.28D-02  NBF=    19     5
 NBsUse=    24 1.00D-06 EigRej= -1.00D+00 NBFU=    19     5
 Initial guess from the checkpoint file:  "/tmp/allouche/2819/Gau-30226.chk"
 B after Tr=     0.000000    0.000000    0.000000
         Rot=    0.999324    0.000000    0.000000    0.036773 Ang=   4.21 deg.
 Initial guess orbital symmetries:
       Occupied  (A') (A') (A') (A') (A")
       Virtual   (A') (A') (A') (A') (A') (A') (A') (A') (A') (A')
                 (A') (A') (A') (A') (A') (A") (A") (A") (A")
 ExpMin= 1.03D-01 ExpMax= 8.59D+03 ExpMxC= 1.30D+03 IAcc=1 IRadAn=         1 AccDes= 0.00D+00
 Harris functional with IExCor=  402 and IRadAn=       1 diagonalized for initial guess.
 HarFok:  IExCor=  402 AccDes= 0.00D+00 IRadAn=         1 IDoV= 1 UseB2=F ITyADJ=14
 ICtDFT=  3500011 ScaDFX=  1.000000  1.000000  1.000000  1.000000
 FoFCou: FMM=F IPFlag=           0 FMFlag=      100000 FMFlg1=           0
         NFxFlg=           0 DoJE=T BraDBF=F KetDBF=T FulRan=T
         wScrn=  0.000000 ICntrl=     500 IOpCl=  0 I1Cent=   200000004 NGrid=           0
         NMat0=    1 NMatS0=      1 NMatT0=    0 NMatD0=    1 NMtDS0=    0 NMtDT0=    0
 Petite list used in FoFCou.
 Keep J ints in memory in symmetry-blocked form, NReq=926451.
 Requested convergence on RMS density matrix=1.00D-08 within 128 cycles.
 Requested convergence on MAX density matrix=1.00D-06.
 Requested convergence on             energy=1.00D-06.
 No special actions if energy rises.
 Integral accuracy reduced to 1.0D-05 until final iterations.
 Initial convergence to 1.0D-05 achieved.  Increase integral accuracy.
 SCF Done:  E(RB-LYP) =  -76.4152280953     A.U. after   10 cycles
            NFock= 10  Conv=0.90D-08     -V/T= 2.0002
 Calling FoFJK, ICntrl=      2527 FMM=F ISym2X=1 I1Cent= 0 IOpClX= 0 NMat=1 NMatS=1 NMatT=0.
 ***** Axes restored to original set *****
 -------------------------------------------------------------------
 Center     Atomic                   Forces (Hartrees/Bohr)
 Number     Number              X              Y              Z
 -------------------------------------------------------------------
      1        1           0.001367572   -0.001508024    0.002180929
      2        1           0.004758142   -0.001867687    0.008658215
      3        8          -0.006125714    0.003375711   -0.010839144
 -------------------------------------------------------------------
 Cartesian Forces:  Max     0.010839144 RMS     0.005541766

 GradGradGradGradGradGradGradGradGradGradGradGradGradGradGradGradGradGrad
 Berny optimization.
 Using GEDIIS/GDIIS optimizer.
 FormGI is forming the generalized inverse of G from B-inverse, IUseBI=4.
 Internal  Forces:  Max     0.009648297 RMS     0.006365495
 Search for a local minimum.
 Step number   2 out of a maximum of   20
 All quantities printed in internal units (Hartrees-Bohrs-Radians)
 Mixed Optimization -- RFO/linear search
 Update second derivatives using D2CorX and points    1    2
 DE= -7.58D-03 DEPred=-6.32D-03 R= 1.20D+00
 TightC=F SS=  1.41D+00  RLast= 1.80D-01 DXNew= 5.0454D-01 5.3941D-01
 Trust test= 1.20D+00 RLast= 1.80D-01 DXMaxT set to 5.05D-01
 The second derivative matrix:
                          R1        R2        A1
           R1           0.56289
           R2           0.00277   0.31876
           A1          -0.00879   0.02798   0.16206
 ITU=  1  0
 Use linear search instead of GDIIS.
     Eigenvalues ---    0.15701   0.32360   0.56310
 RFO step:  Lambda=-2.13948228D-04 EMin= 1.57010845D-01
 Quartic linear search produced a step of  0.11969.
 Iteration  1 RMS(Cart)=  0.01993126 RMS(Int)=  0.00029311
 Iteration  2 RMS(Cart)=  0.00028821 RMS(Int)=  0.00000002
 Iteration  3 RMS(Cart)=  0.00000001 RMS(Int)=  0.00000000
 ClnCor:  largest displacement from symmetrization is 5.56D-16 for atom     2.
 Variable       Old X    -DE/DX   Delta X   Delta X   Delta X     New X
                                 (Linear)    (Quad)   (Total)
    R1        1.84145   0.00085   0.00390  -0.00258   0.00132   1.84277
    R2        1.86397  -0.00965  -0.02116  -0.00382  -0.02498   1.83898
    A1        1.79831   0.00527   0.00041   0.03611   0.03652   1.83482
         Item               Value     Threshold  Converged?
 Maximum Force            0.009648     0.000450     NO 
 RMS     Force            0.006365     0.000300     NO 
 Maximum Displacement     0.021738     0.001800     NO 
 RMS     Displacement     0.019817     0.001200     NO 
 Predicted change in Energy=-2.525312D-04
 GradGradGradGradGradGradGradGradGradGradGradGradGradGradGradGradGradGrad

                          Input orientation:                          
 ---------------------------------------------------------------------
 Center     Atomic      Atomic             Coordinates (Angstroms)
 Number     Number       Type             X           Y           Z
 ---------------------------------------------------------------------
      1          1           0        0.598232   -0.444630   -0.199238
      2          1           0        0.125250    0.948493   -0.677495
      3          8           0        0.576519    0.496138    0.056499
 ---------------------------------------------------------------------
                    Distance matrix (angstroms):
                    1          2          3
     1  H    0.000000
     2  H    1.547008   0.000000
     3  O    0.975150   0.973147   0.000000
 Stoichiometry    H2O
 Framework group  CS[SG(H2O)]
 Deg. of freedom     3
 Full point group                 CS      NOp   2
 Largest Abelian subgroup         CS      NOp   2
 Largest concise Abelian subgroup C1      NOp   1
                         Standard orientation:                         
 ---------------------------------------------------------------------
 Center     Atomic      Atomic             Coordinates (Angstroms)
 Number     Number       Type             X           Y           Z
 ---------------------------------------------------------------------
      1          1           0        0.773502   -0.475379    0.000000
      2          1           0       -0.773502   -0.472084    0.000000
      3          8           0        0.000000    0.118433    0.000000
 ---------------------------------------------------------------------
 Rotational constants (GHZ):    805.1328545    419.0585917    275.6087221
 Standard basis: 6-311G(d) (5D, 7F)
 There are    20 symmetry adapted cartesian basis functions of A'  symmetry.
 There are     5 symmetry adapted cartesian basis functions of A"  symmetry.
 There are    19 symmetry adapted basis functions of A'  symmetry.
 There are     5 symmetry adapted basis functions of A"  symmetry.
    24 basis functions,    42 primitive gaussians,    25 cartesian basis functions
     5 alpha electrons        5 beta electrons
       nuclear repulsion energy         9.0335965194 Hartrees.
 NAtoms=    3 NActive=    3 NUniq=    3 SFac= 1.00D+00 NAtFMM=   60 NAOKFM=F Big=F
 Integral buffers will be    131072 words long.
 Raffenetti 2 integral format.
 Two-electron integral symmetry is turned on.
 One-electron integrals computed using PRISM.
 NBasis=    24 RedAO= T EigKep=  6.34D-02  NBF=    19     5
 NBsUse=    24 1.00D-06 EigRej= -1.00D+00 NBFU=    19     5
 Initial guess from the checkpoint file:  "/tmp/allouche/2819/Gau-30226.chk"
 B after Tr=     0.000000    0.000000    0.000000
         Rot=    0.999988    0.000000    0.000000    0.004912 Ang=   0.56 deg.
 Initial guess orbital symmetries:
       Occupied  (A') (A') (A') (A') (A")
       Virtual   (A') (A') (A') (A') (A') (A') (A') (A') (A') (A')
                 (A') (A') (A') (A') (A') (A") (A") (A") (A")
 ExpMin= 1.03D-01 ExpMax= 8.59D+03 ExpMxC= 1.30D+03 IAcc=1 IRadAn=         1 AccDes= 0.00D+00
 Harris functional with IExCor=  402 and IRadAn=       1 diagonalized for initial guess.
 HarFok:  IExCor=  402 AccDes= 0.00D+00 IRadAn=         1 IDoV= 1 UseB2=F ITyADJ=14
 ICtDFT=  3500011 ScaDFX=  1.000000  1.000000  1.000000  1.000000
 FoFCou: FMM=F IPFlag=           0 FMFlag=      100000 FMFlg1=           0
         NFxFlg=           0 DoJE=T BraDBF=F KetDBF=T FulRan=T
         wScrn=  0.000000 ICntrl=     500 IOpCl=  0 I1Cent=   200000004 NGrid=           0
         NMat0=    1 NMatS0=      1 NMatT0=    0 NMatD0=    1 NMtDS0=    0 NMtDT0=    0
 Petite list used in FoFCou.
 Keep J ints in memory in symmetry-blocked form, NReq=926451.
 Requested convergence on RMS density matrix=1.00D-08 within 128 cycles.
 Requested convergence on MAX density matrix=1.00D-06.
 Requested convergence on             energy=1.00D-06.
 No special actions if energy rises.
 Integral accuracy reduced to 1.0D-05 until final iterations.
 Initial convergence to 1.0D-05 achieved.  Increase integral accuracy.
 SCF Done:  E(RB-LYP) =  -76.4154334414     A.U. after    9 cycles
            NFock=  9  Conv=0.36D-08     -V/T= 2.0000
 Calling FoFJK, ICntrl=      2527 FMM=F ISym2X=1 I1Cent= 0 IOpClX= 0 NMat=1 NMatS=1 NMatT=0.
 ***** Axes restored to original set *****
 -------------------------------------------------------------------
 Center     Atomic                   Forces (Hartrees/Bohr)
 Number     Number              X              Y              Z
 -------------------------------------------------------------------
      1        1          -0.000099980    0.001215839    0.000190705
      2        1          -0.000305135    0.000155556   -0.000543909
      3        8           0.000405114   -0.001371395    0.000353204
 -------------------------------------------------------------------
 Cartesian Forces:  Max     0.001371395 RMS     0.000675555

 GradGradGradGradGradGradGradGradGradGradGradGradGradGradGradGradGradGrad
 Berny optimization.
 Using GEDIIS/GDIIS optimizer.
 FormGI is forming the generalized inverse of G from B-inverse, IUseBI=4.
 Internal  Forces:  Max     0.001225126 RMS     0.000810397
 Search for a local minimum.
 Step number   3 out of a maximum of   20
 All quantities printed in internal units (Hartrees-Bohrs-Radians)
 Mixed Optimization -- En-DIIS/RFO-DIIS
 Update second derivatives using D2CorX and points    1    2    3
 DE= -2.05D-04 DEPred=-2.53D-04 R= 8.13D-01
 TightC=F SS=  1.41D+00  RLast= 4.43D-02 DXNew= 8.4853D-01 1.3279D-01
 Trust test= 8.13D-01 RLast= 4.43D-02 DXMaxT set to 5.05D-01
 The second derivative matrix:
                          R1        R2        A1
           R1           0.57470
           R2          -0.04006   0.41748
           A1           0.00869   0.00579   0.15563
 ITU=  1  1  0
 Use linear search instead of GDIIS.
     Eigenvalues ---    0.15528   0.40809   0.58444
 RFO step:  Lambda=-2.15929175D-06 EMin= 1.55284896D-01
 Quartic linear search produced a step of -0.05826.
 Iteration  1 RMS(Cart)=  0.00142681 RMS(Int)=  0.00000100
 Iteration  2 RMS(Cart)=  0.00000066 RMS(Int)=  0.00000000
 ClnCor:  largest displacement from symmetrization is 1.31D-15 for atom     2.
 Variable       Old X    -DE/DX   Delta X   Delta X   Delta X     New X
                                 (Linear)    (Quad)   (Total)
    R1        1.84277  -0.00123  -0.00008  -0.00194  -0.00201   1.84075
    R2        1.83898   0.00062   0.00146  -0.00015   0.00131   1.84029
    A1        1.83482  -0.00028  -0.00213   0.00045  -0.00168   1.83314
         Item               Value     Threshold  Converged?
 Maximum Force            0.001225     0.000450     NO 
 RMS     Force            0.000810     0.000300     NO 
 Maximum Displacement     0.001670     0.001800     YES
 RMS     Displacement     0.001427     0.001200     NO 
 Predicted change in Energy=-1.894101D-06
 GradGradGradGradGradGradGradGradGradGradGradGradGradGradGradGradGradGrad

                          Input orientation:                          
 ---------------------------------------------------------------------
 Center     Atomic      Atomic             Coordinates (Angstroms)
 Number     Number       Type             X           Y           Z
 ---------------------------------------------------------------------
      1          1           0        0.597961   -0.443746   -0.199485
      2          1           0        0.125202    0.948018   -0.677738
      3          8           0        0.576837    0.495730    0.056988
 ---------------------------------------------------------------------
                    Distance matrix (angstroms):
                    1          2          3
     1  H    0.000000
     2  H    1.545715   0.000000
     3  O    0.974084   0.973838   0.000000
 Stoichiometry    H2O
 Framework group  CS[SG(H2O)]
 Deg. of freedom     3
 Full point group                 CS      NOp   2
 Largest Abelian subgroup         CS      NOp   2
 Largest concise Abelian subgroup C1      NOp   1
                         Standard orientation:                         
 ---------------------------------------------------------------------
 Center     Atomic      Atomic             Coordinates (Angstroms)
 Number     Number       Type             X           Y           Z
 ---------------------------------------------------------------------
      1          1           0        0.772857   -0.474361    0.000000
      2          1           0       -0.772857   -0.473957    0.000000
      3          8           0        0.000000    0.118540    0.000000
 ---------------------------------------------------------------------
 Rotational constants (GHZ):    803.6730239    419.7622076    275.7412522
 Standard basis: 6-311G(d) (5D, 7F)
 There are    20 symmetry adapted cartesian basis functions of A'  symmetry.
 There are     5 symmetry adapted cartesian basis functions of A"  symmetry.
 There are    19 symmetry adapted basis functions of A'  symmetry.
 There are     5 symmetry adapted basis functions of A"  symmetry.
    24 basis functions,    42 primitive gaussians,    25 cartesian basis functions
     5 alpha electrons        5 beta electrons
       nuclear repulsion energy         9.0355472182 Hartrees.
 NAtoms=    3 NActive=    3 NUniq=    3 SFac= 1.00D+00 NAtFMM=   60 NAOKFM=F Big=F
 Integral buffers will be    131072 words long.
 Raffenetti 2 integral format.
 Two-electron integral symmetry is turned on.
 One-electron integrals computed using PRISM.
 NBasis=    24 RedAO= T EigKep=  6.33D-02  NBF=    19     5
 NBsUse=    24 1.00D-06 EigRej= -1.00D+00 NBFU=    19     5
 Initial guess from the checkpoint file:  "/tmp/allouche/2819/Gau-30226.chk"
 B after Tr=     0.000000    0.000000    0.000000
         Rot=    1.000000    0.000000    0.000000   -0.000636 Ang=  -0.07 deg.
 Initial guess orbital symmetries:
       Occupied  (A') (A') (A') (A') (A")
       Virtual   (A') (A') (A') (A') (A') (A') (A') (A') (A') (A')
                 (A') (A') (A') (A') (A') (A") (A") (A") (A")
 Keep J ints in memory in symmetry-blocked form, NReq=926451.
 Requested convergence on RMS density matrix=1.00D-08 within 128 cycles.
 Requested convergence on MAX density matrix=1.00D-06.
 Requested convergence on             energy=1.00D-06.
 No special actions if energy rises.
 SCF Done:  E(RB-LYP) =  -76.4154355109     A.U. after    7 cycles
            NFock=  7  Conv=0.93D-09     -V/T= 2.0000
 Calling FoFJK, ICntrl=      2527 FMM=F ISym2X=1 I1Cent= 0 IOpClX= 0 NMat=1 NMatS=1 NMatT=0.
 ***** Axes restored to original set *****
 -------------------------------------------------------------------
 Center     Atomic                   Forces (Hartrees/Bohr)
 Number     Number              X              Y              Z
 -------------------------------------------------------------------
      1        1           0.000004051    0.000179798    0.000064818
      2        1          -0.000015399    0.000032209   -0.000019735
      3        8           0.000011348   -0.000212007   -0.000045084
 -------------------------------------------------------------------
 Cartesian Forces:  Max     0.000212007 RMS     0.000097364

 GradGradGradGradGradGradGradGradGradGradGradGradGradGradGradGradGradGrad
 Berny optimization.
 Using GEDIIS/GDIIS optimizer.
 FormGI is forming the generalized inverse of G from B-inverse, IUseBI=4.
 Internal  Forces:  Max     0.000190378 RMS     0.000113454
 Search for a local minimum.
 Step number   4 out of a maximum of   20
 All quantities printed in internal units (Hartrees-Bohrs-Radians)
 Mixed Optimization -- En-DIIS/RFO-DIIS
 Swapping is turned off.
 Update second derivatives using D2CorX and points    1    2    3    4
 DE= -2.07D-06 DEPred=-1.89D-06 R= 1.09D+00
 TightC=F SS=  1.41D+00  RLast= 2.93D-03 DXNew= 8.4853D-01 8.7904D-03
 Trust test= 1.09D+00 RLast= 2.93D-03 DXMaxT set to 5.05D-01
 The second derivative matrix:
                          R1        R2        A1
           R1           0.48601
           R2          -0.01651   0.41861
           A1           0.02028  -0.00422   0.15961
 ITU=  1  1  1  0
     Eigenvalues ---    0.15832   0.41478   0.49113
 En-DIIS/RFO-DIIS IScMMF=        0 using points:     4    3
 RFO step:  Lambda=-5.71850098D-08.
 DidBck=F Rises=F RFO-DIIS coefs:    1.11203   -0.11203
 Iteration  1 RMS(Cart)=  0.00018555 RMS(Int)=  0.00000002
 Iteration  2 RMS(Cart)=  0.00000002 RMS(Int)=  0.00000000
 ClnCor:  largest displacement from symmetrization is 1.44D-15 for atom     2.
 Variable       Old X    -DE/DX   Delta X   Delta X   Delta X     New X
                                 (Linear)    (Quad)   (Total)
    R1        1.84075  -0.00019  -0.00023  -0.00017  -0.00040   1.84035
    R2        1.84029   0.00004   0.00015  -0.00007   0.00008   1.84036
    A1        1.83314   0.00003  -0.00019   0.00044   0.00025   1.83339
         Item               Value     Threshold  Converged?
 Maximum Force            0.000190     0.000450     YES
 RMS     Force            0.000113     0.000300     YES
 Maximum Displacement     0.000227     0.001800     YES
 RMS     Displacement     0.000186     0.001200     YES
 Predicted change in Energy=-4.341433D-08
 Optimization completed.
    -- Stationary point found.
                           ----------------------------
                           !   Optimized Parameters   !
                           ! (Angstroms and Degrees)  !
 --------------------------                            --------------------------
 ! Name  Definition              Value          Derivative Info.                !
 --------------------------------------------------------------------------------
 ! R1    R(1,3)                  0.9741         -DE/DX =   -0.0002              !
 ! R2    R(2,3)                  0.9738         -DE/DX =    0.0                 !
 ! A1    A(1,3,2)              105.0313         -DE/DX =    0.0                 !
 --------------------------------------------------------------------------------
 GradGradGradGradGradGradGradGradGradGradGradGradGradGradGradGradGradGrad

                          Input orientation:                          
 ---------------------------------------------------------------------
 Center     Atomic      Atomic             Coordinates (Angstroms)
 Number     Number       Type             X           Y           Z
 ---------------------------------------------------------------------
      1          1           0        0.597961   -0.443746   -0.199485
      2          1           0        0.125202    0.948018   -0.677738
      3          8           0        0.576837    0.495730    0.056988
 ---------------------------------------------------------------------
                    Distance matrix (angstroms):
                    1          2          3
     1  H    0.000000
     2  H    1.545715   0.000000
     3  O    0.974084   0.973838   0.000000
 Stoichiometry    H2O
 Framework group  CS[SG(H2O)]
 Deg. of freedom     3
 Full point group                 CS      NOp   2
 Largest Abelian subgroup         CS      NOp   2
 Largest concise Abelian subgroup C1      NOp   1
                         Standard orientation:                         
 ---------------------------------------------------------------------
 Center     Atomic      Atomic             Coordinates (Angstroms)
 Number     Number       Type             X           Y           Z
 ---------------------------------------------------------------------
      1          1           0        0.772857   -0.474361    0.000000
      2          1           0       -0.772857   -0.473957    0.000000
      3          8           0        0.000000    0.118540    0.000000
 ---------------------------------------------------------------------
 Rotational constants (GHZ):    803.6730239    419.7622076    275.7412522

 **********************************************************************

            Population analysis using the SCF density.

 **********************************************************************

 Orbital symmetries:
       Occupied  (A') (A') (A') (A') (A")
       Virtual   (A') (A') (A') (A') (A") (A') (A') (A') (A') (A')
                 (A') (A") (A") (A') (A') (A") (A') (A') (A')
 The electronic state is 1-A'.
 Alpha  occ. eigenvalues --  -18.74365  -0.90442  -0.46535  -0.30832  -0.23159
 Alpha virt. eigenvalues --    0.00050   0.07675   0.33827   0.37293   0.71759
 Alpha virt. eigenvalues --    0.73284   0.84143   1.10942   1.93689   1.97919
 Alpha virt. eigenvalues --    2.68922   2.70377   2.73203   3.07116   3.36840
 Alpha virt. eigenvalues --    4.62838   4.72862   4.85354  49.29250
          Condensed to atoms (all electrons):
               1          2          3
     1  H    0.415923  -0.042465   0.244311
     2  H   -0.042465   0.415860   0.244314
     3  O    0.244311   0.244314   8.275895
 Mulliken charges:
               1
     1  H    0.382230
     2  H    0.382290
     3  O   -0.764521
 Sum of Mulliken charges =   0.00000
 Mulliken charges with hydrogens summed into heavy atoms:
               1
     3  O    0.000000
 Electronic spatial extent (au):  <R**2>=             19.5926
 Charge=              0.00000000000001 electrons
 Dipole moment (field-independent basis, Debye):
    X=             -0.00032663253761    Y=             -2.21937179868836    Z=              0.00000000000000  Tot=              2.21937182272417
 Quadrupole moment (field-independent basis, Debye-Ang):
   XX=             -4.32670229377832   YY=             -6.20030705055849   ZZ=             -7.38800425777327
   XY=             -0.00056861681684   XZ=              0.00000000000000   YZ=              0.00000000000000
 Traceless Quadrupole moment (field-independent basis, Debye-Ang):
   XX=              1.64496890692504   YY=             -0.22863584985513   ZZ=             -1.41633305706991
   XY=             -0.00056861681684   XZ=              0.00000000000000   YZ=              0.00000000000000
 Octapole moment (field-independent basis, Debye-Ang**2):
  XXX=             -0.00061678768437  YYY=             -1.28278209652950  ZZZ=              0.00000000000000  XYY=              0.00027534779778
  XXY=             -1.20030902701201  XXZ=              0.00000000000000  XZZ=             -0.00021969146148  YZZ=             -0.35471288203220
  YYZ=              0.00000000000000  XYZ=              0.00000000000000
 Hexadecapole moment (field-independent basis, Debye-Ang**3):
 XXXX=             -6.51177120966538 YYYY=             -6.69056271231830 ZZZZ=             -5.67075040446554 XXXY=              0.00026761371044
 XXXZ=              0.00000000000000 YYYX=              0.00019446027443 YYYZ=              0.00000000000000 ZZZX=              0.00000000000000
 ZZZY=              0.00000000000000 XXYY=             -1.89952491986534 XXZZ=             -2.27256761706724 YYZZ=             -2.10914504393177
 XXYZ=              0.00000000000000 YYXZ=              0.00000000000000 ZZXY=              0.00021341692027
 N-N= 9.035547218199D+00 E-N=-1.993053804127D+02  KE= 7.641772496436D+01
 Symmetry A'   KE= 7.171512793215D+01
 Symmetry A"   KE= 4.702597032202D+00
 1\1\GINC-ILMFIXE086\FOpt\RBLYP\6-311G(d)\H2O1\ALLOUCHE\14-Feb-2018\0\\
 # BLYP/6-311G* Opt Freq\\Gaussian file generated by cchemi\\0,1\H,0.59
 79607398,-0.4437464416,-0.1994852684\H,0.1252021955,0.948017855,-0.677
 7377865\O,0.5768370648,0.4957295866,0.056988055\\Version=EM64L-G09RevD
 .01\State=1-A'\HF=-76.4154355\RMSD=9.334e-10\RMSF=9.736e-05\Dipole=-0.
 3171554,-0.3587485,-0.7301606\Quadrupole=-0.7235924,0.9412272,-0.21763
 48,-0.4950178,0.4836035,-0.3307178\PG=CS [SG(H2O1)]\\@


 THE NUMBERS ARE MEANINGLESS, BUT THE TRENDS ARE IMPORTANT.
     -- LARRY BURGGRAF
 Job cpu time:       0 days  0 hours  0 minutes  6.9 seconds.
 File lengths (MBytes):  RWF=      5 Int=      0 D2E=      0 Chk=      1 Scr=      1
 Normal termination of Gaussian 09 at Wed Feb 14 15:12:37 2018.
 Link1:  Proceeding to internal job step number  2.
 --------------------------------------------------------------------
 #N Geom=AllCheck Guess=TCheck SCRF=Check GenChk RBLYP/6-311G(d) Freq
 --------------------------------------------------------------------
 1/10=4,29=7,30=1,38=1,40=1/1,3;
 2/12=2,40=1/2;
 3/5=4,6=6,7=1,11=2,14=-4,16=1,25=1,30=1,70=2,71=2,74=402,116=1,140=1/1,2,3;
 4/5=101/1;
 5/5=2,98=1/2;
 8/6=4,10=90,11=11/1;
 11/6=1,8=1,9=11,15=111,16=1/1,2,10;
 10/6=1/2;
 6/7=2,8=2,9=2,10=2,18=1,28=1/1;
 7/8=1,10=1,25=1/1,2,3,16;
 1/10=4,30=1/3;
 99//99;
 Structure from the checkpoint file:  "/tmp/allouche/2819/Gau-30226.chk"
 ---------------------------------
 Gaussian file generated by cchemi
 ---------------------------------
 Charge =  0 Multiplicity = 1
 Redundant internal coordinates found in file.
 H,0,0.5979607398,-0.4437464416,-0.1994852684
 H,0,0.1252021955,0.948017855,-0.6777377865
 O,0,0.5768370648,0.4957295866,0.056988055
 Recover connectivity data from disk.

 GradGradGradGradGradGradGradGradGradGradGradGradGradGradGradGradGradGrad
 Berny optimization.
 Initialization pass.
                           ----------------------------
                           !    Initial Parameters    !
                           ! (Angstroms and Degrees)  !
 --------------------------                            --------------------------
 ! Name  Definition              Value          Derivative Info.                !
 --------------------------------------------------------------------------------
 ! R1    R(1,3)                  0.9741         calculate D2E/DX2 analytically  !
 ! R2    R(2,3)                  0.9738         calculate D2E/DX2 analytically  !
 ! A1    A(1,3,2)              105.0313         calculate D2E/DX2 analytically  !
 --------------------------------------------------------------------------------
 Trust Radius=3.00D-01 FncErr=1.00D-07 GrdErr=1.00D-07
 Number of steps in this run=      2 maximum allowed number of steps=      2.
 GradGradGradGradGradGradGradGradGradGradGradGradGradGradGradGradGradGrad

                          Input orientation:                          
 ---------------------------------------------------------------------
 Center     Atomic      Atomic             Coordinates (Angstroms)
 Number     Number       Type             X           Y           Z
 ---------------------------------------------------------------------
      1          1           0        0.597961   -0.443746   -0.199485
      2          1           0        0.125202    0.948018   -0.677738
      3          8           0        0.576837    0.495730    0.056988
 ---------------------------------------------------------------------
                    Distance matrix (angstroms):
                    1          2          3
     1  H    0.000000
     2  H    1.545715   0.000000
     3  O    0.974084   0.973838   0.000000
 Stoichiometry    H2O
 Framework group  CS[SG(H2O)]
 Deg. of freedom     3
 Full point group                 CS      NOp   2
 Largest Abelian subgroup         CS      NOp   2
 Largest concise Abelian subgroup C1      NOp   1
                         Standard orientation:                         
 ---------------------------------------------------------------------
 Center     Atomic      Atomic             Coordinates (Angstroms)
 Number     Number       Type             X           Y           Z
 ---------------------------------------------------------------------
      1          1           0        0.772857   -0.474361    0.000000
      2          1           0       -0.772857   -0.473957    0.000000
      3          8           0        0.000000    0.118540    0.000000
 ---------------------------------------------------------------------
 Rotational constants (GHZ):    803.6730239    419.7622076    275.7412522
 Standard basis: 6-311G(d) (5D, 7F)
 There are    20 symmetry adapted cartesian basis functions of A'  symmetry.
 There are     5 symmetry adapted cartesian basis functions of A"  symmetry.
 There are    19 symmetry adapted basis functions of A'  symmetry.
 There are     5 symmetry adapted basis functions of A"  symmetry.
    24 basis functions,    42 primitive gaussians,    25 cartesian basis functions
     5 alpha electrons        5 beta electrons
       nuclear repulsion energy         9.0355472182 Hartrees.
 NAtoms=    3 NActive=    3 NUniq=    3 SFac= 1.00D+00 NAtFMM=   60 NAOKFM=F Big=F
 Integral buffers will be    131072 words long.
 Raffenetti 2 integral format.
 Two-electron integral symmetry is turned on.
 One-electron integrals computed using PRISM.
 NBasis=    24 RedAO= T EigKep=  6.33D-02  NBF=    19     5
 NBsUse=    24 1.00D-06 EigRej= -1.00D+00 NBFU=    19     5
 Initial guess from the checkpoint file:  "/tmp/allouche/2819/Gau-30226.chk"
 B after Tr=     0.000000    0.000000    0.000000
         Rot=    1.000000    0.000000    0.000000    0.000000 Ang=   0.00 deg.
 Initial guess orbital symmetries:
       Occupied  (A') (A') (A') (A') (A")
       Virtual   (A') (A') (A') (A') (A") (A') (A') (A') (A') (A')
                 (A') (A") (A") (A') (A') (A") (A') (A') (A')
 Keep J ints in memory in symmetry-blocked form, NReq=926451.
 Requested convergence on RMS density matrix=1.00D-08 within 128 cycles.
 Requested convergence on MAX density matrix=1.00D-06.
 Requested convergence on             energy=1.00D-06.
 No special actions if energy rises.
 Skip diagonalization as Alpha Fock matrix is already diagonal.
 SCF Done:  E(RB-LYP) =  -76.4154355109     A.U. after    1 cycles
            NFock=  1  Conv=0.00D+00     -V/T= 2.0000
 Range of M.O.s used for correlation:     1    24
 NBasis=    24 NAE=     5 NBE=     5 NFC=     0 NFV=     0
 NROrb=     24 NOA=     5 NOB=     5 NVA=    19 NVB=    19
 Symmetrizing basis deriv contribution to polar:
 IMax=3 JMax=2 DiffMx= 0.00D+00
 G2DrvN: will do     4 centers at a time, making    1 passes.
 Calling FoFCou, ICntrl=  3507 FMM=F I1Cent=   0 AccDes= 0.00D+00.
 End of G2Drv F.D. properties file   721 does not exist.
 End of G2Drv F.D. properties file   722 does not exist.
 End of G2Drv F.D. properties file   788 does not exist.
          IDoAtm=111
          Differentiating once with respect to electric field.
                with respect to dipole field.
          Differentiating once with respect to nuclear coordinates.
 Keep J ints in memory in symmetry-blocked form, NReq=905085.
          There are    12 degrees of freedom in the 1st order CPHF.  IDoFFX=6 NUNeed=     3.
      9 vectors produced by pass  0 Test12= 7.92D-16 8.33D-09 XBig12= 5.22D+00 1.75D+00.
 AX will form     9 AO Fock derivatives at one time.
      9 vectors produced by pass  1 Test12= 7.92D-16 8.33D-09 XBig12= 6.34D-01 3.64D-01.
      9 vectors produced by pass  2 Test12= 7.92D-16 8.33D-09 XBig12= 1.54D-03 1.81D-02.
      9 vectors produced by pass  3 Test12= 7.92D-16 8.33D-09 XBig12= 1.14D-06 4.23D-04.
      4 vectors produced by pass  4 Test12= 7.92D-16 8.33D-09 XBig12= 3.24D-10 8.24D-06.
      1 vectors produced by pass  5 Test12= 7.92D-16 8.33D-09 XBig12= 2.94D-14 7.21D-08.
 InvSVY:  IOpt=1 It=  1 EMax= 4.44D-16
 Solved reduced A of dimension    41 with     9 vectors.
 Isotropic polarizability for W=    0.000000        5.68 Bohr**3.
 End of Minotr F.D. properties file   721 does not exist.
 End of Minotr F.D. properties file   722 does not exist.
 End of Minotr F.D. properties file   788 does not exist.

 **********************************************************************

            Population analysis using the SCF density.

 **********************************************************************

 Orbital symmetries:
       Occupied  (A') (A') (A') (A') (A")
       Virtual   (A') (A') (A') (A') (A") (A') (A') (A') (A') (A')
                 (A') (A") (A") (A') (A') (A") (A') (A') (A')
 The electronic state is 1-A'.
 Alpha  occ. eigenvalues --  -18.74365  -0.90442  -0.46535  -0.30832  -0.23159
 Alpha virt. eigenvalues --    0.00050   0.07675   0.33827   0.37293   0.71759
 Alpha virt. eigenvalues --    0.73284   0.84143   1.10942   1.93689   1.97919
 Alpha virt. eigenvalues --    2.68922   2.70377   2.73203   3.07116   3.36840
 Alpha virt. eigenvalues --    4.62838   4.72862   4.85354  49.29250
          Condensed to atoms (all electrons):
               1          2          3
     1  H    0.415923  -0.042465   0.244311
     2  H   -0.042465   0.415860   0.244314
     3  O    0.244311   0.244314   8.275895
 Mulliken charges:
               1
     1  H    0.382230
     2  H    0.382290
     3  O   -0.764521
 Sum of Mulliken charges =   0.00000
 Mulliken charges with hydrogens summed into heavy atoms:
               1
     3  O    0.000000
 APT charges:
               1
     1  H    0.231378
     2  H    0.231430
     3  O   -0.462809
 Sum of APT charges =   0.00000
 APT charges with hydrogens summed into heavy atoms:
               1
     3  O    0.000000
 Electronic spatial extent (au):  <R**2>=             19.5926
 Charge=              0.00000000000001 electrons
 Dipole moment (field-independent basis, Debye):
    X=             -0.00032663253761    Y=             -2.21937179868835    Z=              0.00000000000000  Tot=              2.21937182272416
 Quadrupole moment (field-independent basis, Debye-Ang):
   XX=             -4.32670229377832   YY=             -6.20030705055849   ZZ=             -7.38800425777327
   XY=             -0.00056861681685   XZ=              0.00000000000000   YZ=              0.00000000000000
 Traceless Quadrupole moment (field-independent basis, Debye-Ang):
   XX=              1.64496890692504   YY=             -0.22863584985513   ZZ=             -1.41633305706991
   XY=             -0.00056861681685   XZ=              0.00000000000000   YZ=              0.00000000000000
 Octapole moment (field-independent basis, Debye-Ang**2):
  XXX=             -0.00061678768438  YYY=             -1.28278209652948  ZZZ=              0.00000000000000  XYY=              0.00027534779778
  XXY=             -1.20030902701199  XXZ=              0.00000000000000  XZZ=             -0.00021969146148  YZZ=             -0.35471288203219
  YYZ=              0.00000000000000  XYZ=              0.00000000000000
 Hexadecapole moment (field-independent basis, Debye-Ang**3):
 XXXX=             -6.51177120966543 YYYY=             -6.69056271231832 ZZZZ=             -5.67075040446552 XXXY=              0.00026761371044
 XXXZ=              0.00000000000000 YYYX=              0.00019446027443 YYYZ=              0.00000000000000 ZZZX=              0.00000000000000
 ZZZY=              0.00000000000000 XXYY=             -1.89952491986536 XXZZ=             -2.27256761706724 YYZZ=             -2.10914504393177
 XXYZ=              0.00000000000000 YYXZ=              0.00000000000000 ZZXY=              0.00021341692027
 N-N= 9.035547218199D+00 E-N=-1.993053804127D+02  KE= 7.641772496436D+01
 Symmetry A'   KE= 7.171512793215D+01
 Symmetry A"   KE= 4.702597032202D+00
  Exact polarizability:   7.924  -0.002   5.722   0.000   0.000   3.401
 Approx polarizability:  11.135  -0.004   7.963   0.000   0.000   3.837
 Calling FoFJK, ICntrl=    100527 FMM=F ISym2X=1 I1Cent= 0 IOpClX= 0 NMat=1 NMatS=1 NMatT=0.
 Full mass-weighted force constant matrix:
 Low frequencies ---  -55.1059    0.0003    0.0009    0.0013   28.1924   30.1308
 Low frequencies --- 1671.7636 3605.3845 3719.8506
 Diagonal vibrational polarizability:
        0.0086891       0.7253789       0.0000000
 Harmonic frequencies (cm**-1), IR intensities (KM/Mole), Raman scattering
 activities (A**4/AMU), depolarization ratios for plane and unpolarized
 incident light, reduced masses (AMU), force constants (mDyne/A),
 and normal coordinates:
                      1                      2                      3
                     A'                     A'                     A'
 Frequencies --   1671.76324390514800              3605.38452263487500              3719.85050589814100
 Red. masses --      1.08594662792025                 1.04214423413837                 1.08237664404876
 Frc consts  --      1.78816747620190                 7.98143857623371                 8.82428551169086
 IR Inten    --     74.76784374834762                 2.62577725058539                 4.46745339961663
  Atom  AN      X      Y      Z        X      Y      Z        X      Y      Z
     1   1     0.411262173443   0.572830920502   0.000000000000    -0.603095450325   0.385634354069   0.000000000000     0.551164641001  -0.423814627953   0.000000000000
     2   1    -0.411311433510   0.573008266409   0.000000000000     0.587909565846   0.373676929650   0.000000000000     0.568135628615   0.434564400961   0.000000000000
     3   8     0.000003103832  -0.072198285951   0.000000000000     0.000956848782  -0.047843514006   0.000000000000    -0.070526092888  -0.000677333429   0.000000000000

 -------------------
 - Thermochemistry -
 -------------------
 Temperature   298.150 Kelvin.  Pressure   1.00000 Atm.
 Atom     1 has atomic number  1 and mass   1.00783
 Atom     2 has atomic number  1 and mass   1.00783
 Atom     3 has atomic number  8 and mass  15.99491
 Molecular mass:    18.01056 amu.
 Principal axes and moments of inertia in atomic units:
                           1         2         3
     Eigenvalues --     2.24562   4.29944   6.54505
           X            1.00000   0.00055   0.00000
           Y           -0.00055   1.00000   0.00000
           Z            0.00000   0.00000   1.00000
 This molecule is an asymmetric top.
 Rotational symmetry number  1.
 Rotational temperatures (Kelvin)     38.57018    20.14538    13.23348
 Rotational constants (GHZ):         803.67302   419.76221   275.74125
 Zero-point vibrational energy      53814.0 (Joules/Mol)
                                   12.86185 (Kcal/Mol)
 Vibrational temperatures:   2405.29  5187.34  5352.03
          (Kelvin)
 
 Zero-point correction=                           0.020497 (Hartree/Particle)
 Thermal correction to Energy=                    0.023332
 Thermal correction to Enthalpy=                  0.024276
 Thermal correction to Gibbs Free Energy=         0.002165
 Sum of electronic and zero-point Energies=            -76.394939
 Sum of electronic and thermal Energies=               -76.392104
 Sum of electronic and thermal Enthalpies=             -76.391160
 Sum of electronic and thermal Free Energies=          -76.413271
 
                     E (Thermal)             CV                S
                      KCal/Mol        Cal/Mol-Kelvin    Cal/Mol-Kelvin
 Total                   14.641              6.002             46.537
 Electronic               0.000              0.000              0.000
 Translational            0.889              2.981             34.608
 Rotational               0.889              2.981             11.923
 Vibrational             12.863              0.041              0.006
                       Q            Log10(Q)             Ln(Q)
 Total Bot       0.100987D+00         -0.995735         -2.292764
 Total V=0       0.270433D+09          8.432059         19.415533
 Vib (Bot)       0.373545D-09         -9.427657        -21.707984
 Vib (V=0)       0.100031D+01          0.000136          0.000314
 Electronic      0.100000D+01          0.000000          0.000000
 Translational   0.300432D+07          6.477746         14.915562
 Rotational      0.899863D+02          1.954177          4.499658
 ***** Axes restored to original set *****
 -------------------------------------------------------------------
 Center     Atomic                   Forces (Hartrees/Bohr)
 Number     Number              X              Y              Z
 -------------------------------------------------------------------
      1        1           0.000004051    0.000179798    0.000064818
      2        1          -0.000015399    0.000032209   -0.000019734
      3        8           0.000011348   -0.000212007   -0.000045084
 -------------------------------------------------------------------
 Cartesian Forces:  Max     0.000212007 RMS     0.000097364
 FormGI is forming the generalized inverse of G from B-inverse, IUseBI=4.

 GradGradGradGradGradGradGradGradGradGradGradGradGradGradGradGradGradGrad
 Berny optimization.
 Internal  Forces:  Max     0.000190378 RMS     0.000113455
 Search for a local minimum.
 Step number   1 out of a maximum of    2
 All quantities printed in internal units (Hartrees-Bohrs-Radians)
 Second derivative matrix not updated -- analytic derivatives used.
 The second derivative matrix:
                          R1        R2        A1
           R1           0.48144
           R2          -0.00699   0.48228
           A1           0.03510   0.03508   0.17251
 ITU=  0
     Eigenvalues ---    0.16458   0.48278   0.48888
 Angle between quadratic step and forces=  22.69 degrees.
 Linear search not attempted -- first point.
 Iteration  1 RMS(Cart)=  0.00018892 RMS(Int)=  0.00000002
 Iteration  2 RMS(Cart)=  0.00000002 RMS(Int)=  0.00000000
 ClnCor:  largest displacement from symmetrization is 2.21D-15 for atom     2.
 Variable       Old X    -DE/DX   Delta X   Delta X   Delta X     New X
                                 (Linear)    (Quad)   (Total)
    R1        1.84075  -0.00019   0.00000  -0.00041  -0.00041   1.84034
    R2        1.84029   0.00004   0.00000   0.00005   0.00005   1.84034
    A1        1.83314   0.00003   0.00000   0.00026   0.00026   1.83340
         Item               Value     Threshold  Converged?
 Maximum Force            0.000190     0.000450     YES
 RMS     Force            0.000113     0.000300     YES
 Maximum Displacement     0.000229     0.001800     YES
 RMS     Displacement     0.000189     0.001200     YES
 Predicted change in Energy=-4.439269D-08
 Optimization completed.
    -- Stationary point found.
                           ----------------------------
                           !   Optimized Parameters   !
                           ! (Angstroms and Degrees)  !
 --------------------------                            --------------------------
 ! Name  Definition              Value          Derivative Info.                !
 --------------------------------------------------------------------------------
 ! R1    R(1,3)                  0.9741         -DE/DX =   -0.0002              !
 ! R2    R(2,3)                  0.9738         -DE/DX =    0.0                 !
 ! A1    A(1,3,2)              105.0313         -DE/DX =    0.0                 !
 --------------------------------------------------------------------------------
 GradGradGradGradGradGradGradGradGradGradGradGradGradGradGradGradGradGrad

 1\1\GINC-ILMFIXE086\Freq\RBLYP\6-311G(d)\H2O1\ALLOUCHE\14-Feb-2018\0\\
 #N Geom=AllCheck Guess=TCheck SCRF=Check GenChk RBLYP/6-311G(d) Freq\\
 Gaussian file generated by cchemi\\0,1\H,0.5979607398,-0.4437464416,-0
 .1994852684\H,0.1252021955,0.948017855,-0.6777377865\O,0.5768370648,0.
 4957295866,0.056988055\\Version=EM64L-G09RevD.01\State=1-A'\HF=-76.415
 4355\RMSD=0.000e+00\RMSF=9.736e-05\ZeroPoint=0.0204967\Thermal=0.02333
 16\Dipole=-0.3171554,-0.3587485,-0.7301606\DipoleDeriv=0.3697985,-0.01
 51235,-0.0435514,-0.0026199,0.0545,-0.1112647,-0.0395914,-0.1355715,0.
 2698368,0.3012376,0.0595513,-0.1533535,0.0471186,0.2830439,0.057779,-0
 .157291,0.081948,0.1100091,-0.6710361,-0.0444278,0.1969049,-0.0444987,
 -0.3375438,0.0534857,0.1968824,0.0536235,-0.3798459\Polar=4.1304032,-0
 .8989231,7.460716,1.1325455,-0.4618663,5.4567295\PG=CS [SG(H2O1)]\NIma
 g=0\\0.01211347,-0.02422775,0.45853687,0.01583296,0.09811608,0.0618745
 8,-0.00159878,-0.00421615,-0.00451424,0.10239220,0.02562398,-0.0248197
 3,0.04194032,-0.10616521,0.15835452,0.00493629,-0.01606822,0.00454366,
 0.16562419,-0.15619858,0.27239830,-0.01051469,0.02844390,-0.01131872,-
 0.10079342,0.08054124,-0.17056049,0.11130811,-0.00139622,-0.43371714,-
 0.14005640,0.11038136,-0.13353479,0.17226680,-0.10898514,0.56725193,-0
 .02076925,-0.08204786,-0.06641824,-0.16110995,0.11425826,-0.27694196,0
 .18187920,-0.03221040,0.34336020\\-0.00000405,-0.00017980,-0.00006482,
 0.00001540,-0.00003221,0.00001973,-0.00001135,0.00021201,0.00004508\\\
 @


 THE SOLUTION TO A PROBLEM CHANGES THE PROBLEM.

                                 -- JOHN PEERS
           PAUL DICKSON'S "THE OFFICIAL RULES"
 Job cpu time:       0 days  0 hours  0 minutes  3.5 seconds.
 File lengths (MBytes):  RWF=      5 Int=      0 D2E=      0 Chk=      1 Scr=      1
 Normal termination of Gaussian 09 at Wed Feb 14 15:12:41 2018.
