 Entering Gaussian System, Link 0=/opt/local/Softwares/G09DSrc-Corr5/g09/g09
 Initial command:
 /opt/local/Softwares/G09DSrc-Corr5/g09/l1.exe "/tmp/allouche/21201/Gau-11800.inp" -scrdir="/tmp/allouche/21201/"
 Entering Link 1 = /opt/local/Softwares/G09DSrc-Corr5/g09/l1.exe PID=     11802.
  
 Copyright (c) 1988,1990,1992,1993,1995,1998,2003,2009,2013,
            Gaussian, Inc.  All Rights Reserved.
  
 This is part of the Gaussian(R) 09 program.  It is based on
 the Gaussian(R) 03 system (copyright 2003, Gaussian, Inc.),
 the Gaussian(R) 98 system (copyright 1998, Gaussian, Inc.),
 the Gaussian(R) 94 system (copyright 1995, Gaussian, Inc.),
 the Gaussian 92(TM) system (copyright 1992, Gaussian, Inc.),
 the Gaussian 90(TM) system (copyright 1990, Gaussian, Inc.),
 the Gaussian 88(TM) system (copyright 1988, Gaussian, Inc.),
 the Gaussian 86(TM) system (copyright 1986, Carnegie Mellon
 University), and the Gaussian 82(TM) system (copyright 1983,
 Carnegie Mellon University). Gaussian is a federally registered
 trademark of Gaussian, Inc.
  
 This software contains proprietary and confidential information,
 including trade secrets, belonging to Gaussian, Inc.
  
 This software is provided under written license and may be
 used, copied, transmitted, or stored only in accord with that
 written license.
  
 The following legend is applicable only to US Government
 contracts under FAR:
  
                    RESTRICTED RIGHTS LEGEND
  
 Use, reproduction and disclosure by the US Government is
 subject to restrictions as set forth in subparagraphs (a)
 and (c) of the Commercial Computer Software - Restricted
 Rights clause in FAR 52.227-19.
  
 Gaussian, Inc.
 340 Quinnipiac St., Bldg. 40, Wallingford CT 06492
  
  
 ---------------------------------------------------------------
 Warning -- This program may not be used in any manner that
 competes with the business of Gaussian, Inc. or will provide
 assistance to any competitor of Gaussian, Inc.  The licensee
 of this program is prohibited from giving any competitor of
 Gaussian, Inc. access to this program.  By using this program,
 the user acknowledges that Gaussian, Inc. is engaged in the
 business of creating and licensing software in the field of
 computational chemistry and represents and warrants to the
 licensee that it is not a competitor of Gaussian, Inc. and that
 it will not use this program in any manner prohibited above.
 ---------------------------------------------------------------
  

 Cite this work as:
 Gaussian 09, Revision D.01,
 M. J. Frisch, G. W. Trucks, H. B. Schlegel, G. E. Scuseria, 
 M. A. Robb, J. R. Cheeseman, G. Scalmani, V. Barone, B. Mennucci, 
 G. A. Petersson, H. Nakatsuji, M. Caricato, X. Li, H. P. Hratchian, 
 A. F. Izmaylov, J. Bloino, G. Zheng, J. L. Sonnenberg, M. Hada, 
 M. Ehara, K. Toyota, R. Fukuda, J. Hasegawa, M. Ishida, T. Nakajima, 
 Y. Honda, O. Kitao, H. Nakai, T. Vreven, J. A. Montgomery, Jr., 
 J. E. Peralta, F. Ogliaro, M. Bearpark, J. J. Heyd, E. Brothers, 
 K. N. Kudin, V. N. Staroverov, T. Keith, R. Kobayashi, J. Normand, 
 K. Raghavachari, A. Rendell, J. C. Burant, S. S. Iyengar, J. Tomasi, 
 M. Cossi, N. Rega, J. M. Millam, M. Klene, J. E. Knox, J. B. Cross, 
 V. Bakken, C. Adamo, J. Jaramillo, R. Gomperts, R. E. Stratmann, 
 O. Yazyev, A. J. Austin, R. Cammi, C. Pomelli, J. W. Ochterski, 
 R. L. Martin, K. Morokuma, V. G. Zakrzewski, G. A. Voth, 
 P. Salvador, J. J. Dannenberg, S. Dapprich, A. D. Daniels, 
 O. Farkas, J. B. Foresman, J. V. Ortiz, J. Cioslowski, 
 and D. J. Fox, Gaussian, Inc., Wallingford CT, 2013.
 
 ******************************************
 Gaussian 09:  EM64L-G09RevD.01 24-Apr-2013
                14-Feb-2018 
 ******************************************
 ----------------------
 # BLYP/6-31G* Opt Freq
 ----------------------
 1/14=-1,18=20,19=15,26=3,38=1/1,3;
 2/9=110,12=2,17=6,18=5,40=1/2;
 3/5=1,6=6,7=1,11=2,16=1,25=1,30=1,71=1,74=402/1,2,3;
 4//1;
 5/5=2,38=5/2;
 6/7=2,8=2,9=2,10=2,28=1/1;
 7//1,2,3,16;
 1/14=-1,18=20,19=15,26=3/3(2);
 2/9=110/2;
 99//99;
 2/9=110/2;
 3/5=1,6=6,7=1,11=2,16=1,25=1,30=1,71=1,74=402/1,2,3;
 4/5=5,16=3,69=1/1;
 5/5=2,38=5/2;
 7//1,2,3,16;
 1/14=-1,18=20,19=15,26=3/3(-5);
 2/9=110/2;
 6/7=2,8=2,9=2,10=2,19=2,28=1/1;
 99/9=1/99;
 ---------------------------------
 Gaussian file generated by cchemi
 ---------------------------------
 Symbolic Z-matrix:
 Charge =  0 Multiplicity = 1
 H                    0     0.6      -0.44454  -0.19577 
 H                    0     0.1       0.97655  -0.71769 
 O                    0     0.6       0.46799   0.09323 
 

 GradGradGradGradGradGradGradGradGradGradGradGradGradGradGradGradGradGrad
 Berny optimization.
 Initialization pass.
                           ----------------------------
                           !    Initial Parameters    !
                           ! (Angstroms and Degrees)  !
 --------------------------                            --------------------------
 ! Name  Definition              Value          Derivative Info.                !
 --------------------------------------------------------------------------------
 ! R1    R(1,3)                  0.9572         estimate D2E/DX2                !
 ! R2    R(2,3)                  1.0799         estimate D2E/DX2                !
 ! A1    A(1,3,2)              102.8398         estimate D2E/DX2                !
 --------------------------------------------------------------------------------
 Trust Radius=3.00D-01 FncErr=1.00D-07 GrdErr=1.00D-06
 Number of steps in this run=     20 maximum allowed number of steps=    100.
 GradGradGradGradGradGradGradGradGradGradGradGradGradGradGradGradGradGrad

                          Input orientation:                          
 ---------------------------------------------------------------------
 Center     Atomic      Atomic             Coordinates (Angstroms)
 Number     Number       Type             X           Y           Z
 ---------------------------------------------------------------------
      1          1           0        0.600000   -0.444539   -0.195772
      2          1           0        0.100000    0.976550   -0.717694
      3          8           0        0.600000    0.467990    0.093231
 ---------------------------------------------------------------------
                    Distance matrix (angstroms):
                    1          2          3
     1  H    0.000000
     2  H    1.594333   0.000000
     3  O    0.957200   1.079923   0.000000
 Stoichiometry    H2O
 Framework group  CS[SG(H2O)]
 Deg. of freedom     3
 Full point group                 CS      NOp   2
 Largest Abelian subgroup         CS      NOp   2
 Largest concise Abelian subgroup C1      NOp   1
                         Standard orientation:                         
 ---------------------------------------------------------------------
 Center     Atomic      Atomic             Coordinates (Angstroms)
 Number     Number       Type             X           Y           Z
 ---------------------------------------------------------------------
      1          1           0        0.791105   -0.411475    0.000000
      2          1           0       -0.791105   -0.607711    0.000000
      3          8           0        0.000000    0.127398    0.000000
 ---------------------------------------------------------------------
 Rotational constants (GHZ):    719.9250977    387.1923470    251.7795105
 Standard basis: 6-31G(d) (6D, 7F)
 There are    15 symmetry adapted cartesian basis functions of A'  symmetry.
 There are     4 symmetry adapted cartesian basis functions of A"  symmetry.
 There are    15 symmetry adapted basis functions of A'  symmetry.
 There are     4 symmetry adapted basis functions of A"  symmetry.
    19 basis functions,    36 primitive gaussians,    19 cartesian basis functions
     5 alpha electrons        5 beta electrons
       nuclear repulsion energy         8.6747333347 Hartrees.
 NAtoms=    3 NActive=    3 NUniq=    3 SFac= 1.00D+00 NAtFMM=   60 NAOKFM=F Big=F
 Integral buffers will be    131072 words long.
 Raffenetti 2 integral format.
 Two-electron integral symmetry is turned on.
 One-electron integrals computed using PRISM.
 NBasis=    19 RedAO= T EigKep=  3.43D-02  NBF=    15     4
 NBsUse=    19 1.00D-06 EigRej= -1.00D+00 NBFU=    15     4
 ExpMin= 1.61D-01 ExpMax= 5.48D+03 ExpMxC= 8.25D+02 IAcc=1 IRadAn=         1 AccDes= 0.00D+00
 Harris functional with IExCor=  402 and IRadAn=       1 diagonalized for initial guess.
 HarFok:  IExCor=  402 AccDes= 0.00D+00 IRadAn=         1 IDoV= 1 UseB2=F ITyADJ=14
 ICtDFT=  3500011 ScaDFX=  1.000000  1.000000  1.000000  1.000000
 FoFCou: FMM=F IPFlag=           0 FMFlag=      100000 FMFlg1=           0
         NFxFlg=           0 DoJE=T BraDBF=F KetDBF=T FulRan=T
         wScrn=  0.000000 ICntrl=     500 IOpCl=  0 I1Cent=   200000004 NGrid=           0
         NMat0=    1 NMatS0=      1 NMatT0=    0 NMatD0=    1 NMtDS0=    0 NMtDT0=    0
 Petite list used in FoFCou.
 Initial guess orbital symmetries:
       Occupied  (A') (A') (A') (A') (A")
       Virtual   (A') (A') (A') (A') (A") (A') (A') (A') (A') (A")
                 (A") (A') (A') (A')
 The electronic state of the initial guess is 1-A'.
 Keep J ints in memory in symmetry-blocked form, NReq=898160.
 Requested convergence on RMS density matrix=1.00D-08 within 128 cycles.
 Requested convergence on MAX density matrix=1.00D-06.
 Requested convergence on             energy=1.00D-06.
 No special actions if energy rises.
 Integral accuracy reduced to 1.0D-05 until final iterations.
 Initial convergence to 1.0D-05 achieved.  Increase integral accuracy.
 SCF Done:  E(RB-LYP) =  -76.3812596508     A.U. after   11 cycles
            NFock= 11  Conv=0.36D-08     -V/T= 2.0090

 **********************************************************************

            Population analysis using the SCF density.

 **********************************************************************

 Orbital symmetries:
       Occupied  (A') (A') (A') (A') (A")
       Virtual   (A') (A') (A') (A') (A") (A') (A') (A') (A') (A")
                 (A") (A') (A') (A')
 The electronic state is 1-A'.
 Alpha  occ. eigenvalues --  -18.79131  -0.88290  -0.43886  -0.30755  -0.22122
 Alpha virt. eigenvalues --    0.01567   0.10489   0.68584   0.78229   0.83699
 Alpha virt. eigenvalues --    0.84567   0.99878   1.14480   1.67990   1.69920
 Alpha virt. eigenvalues --    1.73016   2.13115   2.44949   3.44086
          Condensed to atoms (all electrons):
               1          2          3
     1  H    0.427055  -0.021084   0.220345
     2  H   -0.021084   0.459375   0.218706
     3  O    0.220345   0.218706   8.277635
 Mulliken charges:
               1
     1  H    0.373683
     2  H    0.343003
     3  O   -0.716686
 Sum of Mulliken charges =   0.00000
 Mulliken charges with hydrogens summed into heavy atoms:
               1
     3  O    0.000000
 Electronic spatial extent (au):  <R**2>=             19.9872
 Charge=              0.00000000000001 electrons
 Dipole moment (field-independent basis, Debye):
    X=              0.13340391133291    Y=             -2.02833257359752    Z=              0.00000000000000  Tot=              2.03271484293190
 Quadrupole moment (field-independent basis, Debye-Ang):
   XX=             -4.37813939865819   YY=             -5.98727424018116   ZZ=             -7.29512034089003
   XY=              0.26219091298392   XZ=              0.00000000000000   YZ=              0.00000000000000
 Traceless Quadrupole moment (field-independent basis, Debye-Ang):
   XX=              1.50870526125160   YY=             -0.10042958027137   ZZ=             -1.40827568098024
   XY=              0.26219091298392   XZ=              0.00000000000000   YZ=              0.00000000000000
 Octapole moment (field-independent basis, Debye-Ang**2):
  XXX=              0.27083483032609  YYY=             -1.06402957546867  ZZZ=              0.00000000000000  XYY=             -0.16603669955253
  XXY=             -1.19366799072787  XXZ=              0.00000000000000  XZZ=              0.09136219940592  YZZ=             -0.25000818738458
  YYZ=              0.00000000000000  XYZ=              0.00000000000000
 Hexadecapole moment (field-independent basis, Debye-Ang**3):
 XXXX=             -6.82013078261108 YYYY=             -6.82070701974618 ZZZZ=             -5.33959526256819 XXXY=             -0.14036599413139
 XXXZ=              0.00000000000000 YYYX=             -0.07830761890999 YYYZ=              0.00000000000000 ZZZX=              0.00000000000000
 ZZZY=              0.00000000000000 XXYY=             -1.89306209615646 XXZZ=             -2.28335033044814 YYZZ=             -2.09617310960767
 XXYZ=              0.00000000000000 YYXZ=              0.00000000000000 ZZXY=             -0.10876545050105
 N-N= 8.674733334742D+00 E-N=-1.978604181970D+02  KE= 7.570071634899D+01
 Symmetry A'   KE= 7.107842532059D+01
 Symmetry A"   KE= 4.622291028398D+00
 Calling FoFJK, ICntrl=      2527 FMM=F ISym2X=1 I1Cent= 0 IOpClX= 0 NMat=1 NMatS=1 NMatT=0.
 ***** Axes restored to original set *****
 -------------------------------------------------------------------
 Center     Atomic                   Forces (Hartrees/Bohr)
 Number     Number              X              Y              Z
 -------------------------------------------------------------------
      1        1          -0.001316180   -0.021822007   -0.009469775
      2        1           0.029378980   -0.032282946    0.046887889
      3        8          -0.028062800    0.054104954   -0.037418113
 -------------------------------------------------------------------
 Cartesian Forces:  Max     0.054104954 RMS     0.032975375

 GradGradGradGradGradGradGradGradGradGradGradGradGradGradGradGradGradGrad
 Berny optimization.
 FormGI is forming the generalized inverse of G from B-inverse, IUseBI=4.
 Internal  Forces:  Max     0.064013482 RMS     0.039508499
 Search for a local minimum.
 Step number   1 out of a maximum of   20
 All quantities printed in internal units (Hartrees-Bohrs-Radians)
 Mixed Optimization -- RFO/linear search
 Second derivative matrix not updated -- first step.
 The second derivative matrix:
                          R1        R2        A1
           R1           0.56080
           R2           0.00000   0.36004
           A1           0.00000   0.00000   0.16000
 ITU=  0
     Eigenvalues ---    0.16000   0.36004   0.56080
 RFO step:  Lambda=-1.21335835D-02 EMin= 1.60000000D-01
 Linear search not attempted -- first point.
 Iteration  1 RMS(Cart)=  0.08221977 RMS(Int)=  0.00218351
 Iteration  2 RMS(Cart)=  0.00189230 RMS(Int)=  0.00000248
 Iteration  3 RMS(Cart)=  0.00000241 RMS(Int)=  0.00000000
 Iteration  4 RMS(Cart)=  0.00000000 RMS(Int)=  0.00000000
 ClnCor:  largest displacement from symmetrization is 1.03D-15 for atom     2.
 Variable       Old X    -DE/DX   Delta X   Delta X   Delta X     New X
                                 (Linear)    (Quad)   (Total)
    R1        1.80885   0.02366   0.00000   0.04130   0.04130   1.85015
    R2        2.04076  -0.06401   0.00000  -0.17200  -0.17200   1.86876
    A1        1.79489  -0.00501   0.00000  -0.02912  -0.02912   1.76577
         Item               Value     Threshold  Converged?
 Maximum Force            0.064013     0.000450     NO 
 RMS     Force            0.039508     0.000300     NO 
 Maximum Displacement     0.081159     0.001800     NO 
 RMS     Displacement     0.081786     0.001200     NO 
 Predicted change in Energy=-6.261765D-03
 GradGradGradGradGradGradGradGradGradGradGradGradGradGradGradGradGradGrad

                          Input orientation:                          
 ---------------------------------------------------------------------
 Center     Atomic      Atomic             Coordinates (Angstroms)
 Number     Number       Type             X           Y           Z
 ---------------------------------------------------------------------
      1          1           0        0.589950   -0.434632   -0.212171
      2          1           0        0.124274    0.933603   -0.684107
      3          8           0        0.585776    0.501030    0.076043
 ---------------------------------------------------------------------
                    Distance matrix (angstroms):
                    1          2          3
     1  H    0.000000
     2  H    1.520409   0.000000
     3  O    0.979055   0.988904   0.000000
 Stoichiometry    H2O
 Framework group  CS[SG(H2O)]
 Deg. of freedom     3
 Full point group                 CS      NOp   2
 Largest Abelian subgroup         CS      NOp   2
 Largest concise Abelian subgroup C1      NOp   1
                         Standard orientation:                         
 ---------------------------------------------------------------------
 Center     Atomic      Atomic             Coordinates (Angstroms)
 Number     Number       Type             X           Y           Z
 ---------------------------------------------------------------------
      1          1           0        0.760165   -0.492055    0.000000
      2          1           0       -0.760165   -0.507566    0.000000
      3          8           0        0.000000    0.124953    0.000000
 ---------------------------------------------------------------------
 Rotational constants (GHZ):    723.4850405    433.7838076    271.1868518
 Standard basis: 6-31G(d) (6D, 7F)
 There are    15 symmetry adapted cartesian basis functions of A'  symmetry.
 There are     4 symmetry adapted cartesian basis functions of A"  symmetry.
 There are    15 symmetry adapted basis functions of A'  symmetry.
 There are     4 symmetry adapted basis functions of A"  symmetry.
    19 basis functions,    36 primitive gaussians,    19 cartesian basis functions
     5 alpha electrons        5 beta electrons
       nuclear repulsion energy         8.9529507222 Hartrees.
 NAtoms=    3 NActive=    3 NUniq=    3 SFac= 1.00D+00 NAtFMM=   60 NAOKFM=F Big=F
 Integral buffers will be    131072 words long.
 Raffenetti 2 integral format.
 Two-electron integral symmetry is turned on.
 One-electron integrals computed using PRISM.
 NBasis=    19 RedAO= T EigKep=  3.29D-02  NBF=    15     4
 NBsUse=    19 1.00D-06 EigRej= -1.00D+00 NBFU=    15     4
 Initial guess from the checkpoint file:  "/tmp/allouche/21201/Gau-11802.chk"
 B after Tr=     0.000000    0.000000    0.000000
         Rot=    0.999311    0.000000    0.000000    0.037104 Ang=   4.25 deg.
 Initial guess orbital symmetries:
       Occupied  (A') (A') (A') (A') (A")
       Virtual   (A') (A') (A') (A') (A') (A') (A') (A') (A') (A')
                 (A') (A") (A") (A")
 ExpMin= 1.61D-01 ExpMax= 5.48D+03 ExpMxC= 8.25D+02 IAcc=1 IRadAn=         1 AccDes= 0.00D+00
 Harris functional with IExCor=  402 and IRadAn=       1 diagonalized for initial guess.
 HarFok:  IExCor=  402 AccDes= 0.00D+00 IRadAn=         1 IDoV= 1 UseB2=F ITyADJ=14
 ICtDFT=  3500011 ScaDFX=  1.000000  1.000000  1.000000  1.000000
 FoFCou: FMM=F IPFlag=           0 FMFlag=      100000 FMFlg1=           0
         NFxFlg=           0 DoJE=T BraDBF=F KetDBF=T FulRan=T
         wScrn=  0.000000 ICntrl=     500 IOpCl=  0 I1Cent=   200000004 NGrid=           0
         NMat0=    1 NMatS0=      1 NMatT0=    0 NMatD0=    1 NMtDS0=    0 NMtDT0=    0
 Petite list used in FoFCou.
 Keep J ints in memory in symmetry-blocked form, NReq=898160.
 Requested convergence on RMS density matrix=1.00D-08 within 128 cycles.
 Requested convergence on MAX density matrix=1.00D-06.
 Requested convergence on             energy=1.00D-06.
 No special actions if energy rises.
 Integral accuracy reduced to 1.0D-05 until final iterations.
 Initial convergence to 1.0D-05 achieved.  Increase integral accuracy.
 SCF Done:  E(RB-LYP) =  -76.3884239270     A.U. after   10 cycles
            NFock= 10  Conv=0.62D-08     -V/T= 2.0080
 Calling FoFJK, ICntrl=      2527 FMM=F ISym2X=1 I1Cent= 0 IOpClX= 0 NMat=1 NMatS=1 NMatT=0.
 ***** Axes restored to original set *****
 -------------------------------------------------------------------
 Center     Atomic                   Forces (Hartrees/Bohr)
 Number     Number              X              Y              Z
 -------------------------------------------------------------------
      1        1           0.001119272   -0.002271433    0.001456464
      2        1           0.003457852   -0.000990802    0.006408195
      3        8          -0.004577124    0.003262235   -0.007864658
 -------------------------------------------------------------------
 Cartesian Forces:  Max     0.007864658 RMS     0.004163091

 GradGradGradGradGradGradGradGradGradGradGradGradGradGradGradGradGradGrad
 Berny optimization.
 Using GEDIIS/GDIIS optimizer.
 FormGI is forming the generalized inverse of G from B-inverse, IUseBI=4.
 Internal  Forces:  Max     0.006972593 RMS     0.004845826
 Search for a local minimum.
 Step number   2 out of a maximum of   20
 All quantities printed in internal units (Hartrees-Bohrs-Radians)
 Mixed Optimization -- RFO/linear search
 Update second derivatives using D2CorX and points    1    2
 DE= -7.16D-03 DEPred=-6.26D-03 R= 1.14D+00
 TightC=F SS=  1.41D+00  RLast= 1.79D-01 DXNew= 5.0454D-01 5.3781D-01
 Trust test= 1.14D+00 RLast= 1.79D-01 DXMaxT set to 5.05D-01
 The second derivative matrix:
                          R1        R2        A1
           R1           0.55883
           R2           0.00837   0.32959
           A1          -0.00945   0.02395   0.16610
 ITU=  1  0
 Use linear search instead of GDIIS.
     Eigenvalues ---    0.16238   0.33281   0.55932
 RFO step:  Lambda=-1.79787212D-04 EMin= 1.62384610D-01
 Quartic linear search produced a step of  0.07858.
 Iteration  1 RMS(Cart)=  0.01709420 RMS(Int)=  0.00019927
 Iteration  2 RMS(Cart)=  0.00018697 RMS(Int)=  0.00000001
 Iteration  3 RMS(Cart)=  0.00000001 RMS(Int)=  0.00000000
 ClnCor:  largest displacement from symmetrization is 1.39D-15 for atom     2.
 Variable       Old X    -DE/DX   Delta X   Delta X   Delta X     New X
                                 (Linear)    (Quad)   (Total)
    R1        1.85015   0.00175   0.00325   0.00003   0.00328   1.85342
    R2        1.86876  -0.00697  -0.01352  -0.00536  -0.01888   1.84988
    A1        1.76577   0.00433  -0.00229   0.03279   0.03050   1.79627
         Item               Value     Threshold  Converged?
 Maximum Force            0.006973     0.000450     NO 
 RMS     Force            0.004846     0.000300     NO 
 Maximum Displacement     0.017410     0.001800     NO 
 RMS     Displacement     0.017014     0.001200     NO 
 Predicted change in Energy=-1.457832D-04
 GradGradGradGradGradGradGradGradGradGradGradGradGradGradGradGradGradGrad

                          Input orientation:                          
 ---------------------------------------------------------------------
 Center     Atomic      Atomic             Coordinates (Angstroms)
 Number     Number       Type             X           Y           Z
 ---------------------------------------------------------------------
      1          1           0        0.593600   -0.440822   -0.207036
      2          1           0        0.125338    0.939951   -0.680029
      3          8           0        0.581062    0.500872    0.066830
 ---------------------------------------------------------------------
                    Distance matrix (angstroms):
                    1          2          3
     1  H    0.000000
     2  H    1.532816   0.000000
     3  O    0.980789   0.978915   0.000000
 Stoichiometry    H2O
 Framework group  CS[SG(H2O)]
 Deg. of freedom     3
 Full point group                 CS      NOp   2
 Largest Abelian subgroup         CS      NOp   2
 Largest concise Abelian subgroup C1      NOp   1
                         Standard orientation:                         
 ---------------------------------------------------------------------
 Center     Atomic      Atomic             Coordinates (Angstroms)
 Number     Number       Type             X           Y           Z
 ---------------------------------------------------------------------
      1          1           0        0.766407   -0.489916    0.000000
      2          1           0       -0.766407   -0.486909    0.000000
      3          8           0        0.000000    0.122103    0.000000
 ---------------------------------------------------------------------
 Rotational constants (GHZ):    757.4571868    426.8543128    273.0057650
 Standard basis: 6-31G(d) (6D, 7F)
 There are    15 symmetry adapted cartesian basis functions of A'  symmetry.
 There are     4 symmetry adapted cartesian basis functions of A"  symmetry.
 There are    15 symmetry adapted basis functions of A'  symmetry.
 There are     4 symmetry adapted basis functions of A"  symmetry.
    19 basis functions,    36 primitive gaussians,    19 cartesian basis functions
     5 alpha electrons        5 beta electrons
       nuclear repulsion energy         8.9861743496 Hartrees.
 NAtoms=    3 NActive=    3 NUniq=    3 SFac= 1.00D+00 NAtFMM=   60 NAOKFM=F Big=F
 Integral buffers will be    131072 words long.
 Raffenetti 2 integral format.
 Two-electron integral symmetry is turned on.
 One-electron integrals computed using PRISM.
 NBasis=    19 RedAO= T EigKep=  3.27D-02  NBF=    15     4
 NBsUse=    19 1.00D-06 EigRej= -1.00D+00 NBFU=    15     4
 Initial guess from the checkpoint file:  "/tmp/allouche/21201/Gau-11802.chk"
 B after Tr=     0.000000    0.000000    0.000000
         Rot=    0.999992    0.000000    0.000000    0.003992 Ang=   0.46 deg.
 Initial guess orbital symmetries:
       Occupied  (A') (A') (A') (A') (A")
       Virtual   (A') (A') (A') (A') (A') (A') (A') (A') (A') (A')
                 (A') (A") (A") (A")
 Keep J ints in memory in symmetry-blocked form, NReq=898160.
 Requested convergence on RMS density matrix=1.00D-08 within 128 cycles.
 Requested convergence on MAX density matrix=1.00D-06.
 Requested convergence on             energy=1.00D-06.
 No special actions if energy rises.
 SCF Done:  E(RB-LYP) =  -76.3885413797     A.U. after    7 cycles
            NFock=  7  Conv=0.87D-08     -V/T= 2.0078
 Calling FoFJK, ICntrl=      2527 FMM=F ISym2X=1 I1Cent= 0 IOpClX= 0 NMat=1 NMatS=1 NMatT=0.
 ***** Axes restored to original set *****
 -------------------------------------------------------------------
 Center     Atomic                   Forces (Hartrees/Bohr)
 Number     Number              X              Y              Z
 -------------------------------------------------------------------
      1        1          -0.000164337    0.000966483   -0.000013377
      2        1          -0.000395139    0.000067349   -0.000746812
      3        8           0.000559476   -0.001033832    0.000760189
 -------------------------------------------------------------------
 Cartesian Forces:  Max     0.001033832 RMS     0.000635906

 GradGradGradGradGradGradGradGradGradGradGradGradGradGradGradGradGradGrad
 Berny optimization.
 Using GEDIIS/GDIIS optimizer.
 FormGI is forming the generalized inverse of G from B-inverse, IUseBI=4.
 Internal  Forces:  Max     0.000926241 RMS     0.000780444
 Search for a local minimum.
 Step number   3 out of a maximum of   20
 All quantities printed in internal units (Hartrees-Bohrs-Radians)
 Mixed Optimization -- En-DIIS/RFO-DIIS
 Update second derivatives using D2CorX and points    1    2    3
 DE= -1.17D-04 DEPred=-1.46D-04 R= 8.06D-01
 TightC=F SS=  1.41D+00  RLast= 3.60D-02 DXNew= 8.4853D-01 1.0805D-01
 Trust test= 8.06D-01 RLast= 3.60D-02 DXMaxT set to 5.05D-01
 The second derivative matrix:
                          R1        R2        A1
           R1           0.57611
           R2          -0.03110   0.40749
           A1           0.00651   0.00122   0.16168
 ITU=  1  1  0
 Use linear search instead of GDIIS.
     Eigenvalues ---    0.16157   0.40196   0.58176
 RFO step:  Lambda=-7.16464754D-07 EMin= 1.61565088D-01
 Quartic linear search produced a step of -0.11642.
 Iteration  1 RMS(Cart)=  0.00221462 RMS(Int)=  0.00000275
 Iteration  2 RMS(Cart)=  0.00000220 RMS(Int)=  0.00000000
 Iteration  3 RMS(Cart)=  0.00000000 RMS(Int)=  0.00000000
 ClnCor:  largest displacement from symmetrization is 3.23D-15 for atom     2.
 Variable       Old X    -DE/DX   Delta X   Delta X   Delta X     New X
                                 (Linear)    (Quad)   (Total)
    R1        1.85342  -0.00093  -0.00038  -0.00109  -0.00147   1.85195
    R2        1.84988   0.00078   0.00220  -0.00039   0.00181   1.85169
    A1        1.79627  -0.00060  -0.00355  -0.00003  -0.00358   1.79270
         Item               Value     Threshold  Converged?
 Maximum Force            0.000926     0.000450     NO 
 RMS     Force            0.000780     0.000300     NO 
 Maximum Displacement     0.002080     0.001800     NO 
 RMS     Displacement     0.002216     0.001200     NO 
 Predicted change in Energy=-2.478014D-06
 GradGradGradGradGradGradGradGradGradGradGradGradGradGradGradGradGradGrad

                          Input orientation:                          
 ---------------------------------------------------------------------
 Center     Atomic      Atomic             Coordinates (Angstroms)
 Number     Number       Type             X           Y           Z
 ---------------------------------------------------------------------
      1          1           0        0.593110   -0.439721   -0.207640
      2          1           0        0.125296    0.939009   -0.680409
      3          8           0        0.581594    0.500713    0.067813
 ---------------------------------------------------------------------
                    Distance matrix (angstroms):
                    1          2          3
     1  H    0.000000
     2  H    1.530770   0.000000
     3  O    0.980012   0.979871   0.000000
 Stoichiometry    H2O
 Framework group  CS[SG(H2O)]
 Deg. of freedom     3
 Full point group                 CS      NOp   2
 Largest Abelian subgroup         CS      NOp   2
 Largest concise Abelian subgroup C1      NOp   1
                         Standard orientation:                         
 ---------------------------------------------------------------------
 Center     Atomic      Atomic             Coordinates (Angstroms)
 Number     Number       Type             X           Y           Z
 ---------------------------------------------------------------------
      1          1           0        0.765385   -0.489665    0.000000
      2          1           0       -0.765385   -0.489440    0.000000
      3          8           0        0.000000    0.122388    0.000000
 ---------------------------------------------------------------------
 Rotational constants (GHZ):    753.9268091    427.9983647    273.0117342
 Standard basis: 6-31G(d) (6D, 7F)
 There are    15 symmetry adapted cartesian basis functions of A'  symmetry.
 There are     4 symmetry adapted cartesian basis functions of A"  symmetry.
 There are    15 symmetry adapted basis functions of A'  symmetry.
 There are     4 symmetry adapted basis functions of A"  symmetry.
    19 basis functions,    36 primitive gaussians,    19 cartesian basis functions
     5 alpha electrons        5 beta electrons
       nuclear repulsion energy         8.9858371811 Hartrees.
 NAtoms=    3 NActive=    3 NUniq=    3 SFac= 1.00D+00 NAtFMM=   60 NAOKFM=F Big=F
 Integral buffers will be    131072 words long.
 Raffenetti 2 integral format.
 Two-electron integral symmetry is turned on.
 One-electron integrals computed using PRISM.
 NBasis=    19 RedAO= T EigKep=  3.27D-02  NBF=    15     4
 NBsUse=    19 1.00D-06 EigRej= -1.00D+00 NBFU=    15     4
 Initial guess from the checkpoint file:  "/tmp/allouche/21201/Gau-11802.chk"
 B after Tr=     0.000000    0.000000    0.000000
         Rot=    1.000000    0.000000    0.000000   -0.000601 Ang=  -0.07 deg.
 Initial guess orbital symmetries:
       Occupied  (A') (A') (A') (A') (A")
       Virtual   (A') (A') (A') (A') (A') (A') (A') (A') (A') (A')
                 (A') (A") (A") (A")
 Keep J ints in memory in symmetry-blocked form, NReq=898160.
 Requested convergence on RMS density matrix=1.00D-08 within 128 cycles.
 Requested convergence on MAX density matrix=1.00D-06.
 Requested convergence on             energy=1.00D-06.
 No special actions if energy rises.
 SCF Done:  E(RB-LYP) =  -76.3885438920     A.U. after    7 cycles
            NFock=  7  Conv=0.16D-08     -V/T= 2.0078
 Calling FoFJK, ICntrl=      2527 FMM=F ISym2X=1 I1Cent= 0 IOpClX= 0 NMat=1 NMatS=1 NMatT=0.
 ***** Axes restored to original set *****
 -------------------------------------------------------------------
 Center     Atomic                   Forces (Hartrees/Bohr)
 Number     Number              X              Y              Z
 -------------------------------------------------------------------
      1        1           0.000004493    0.000097854    0.000039725
      2        1          -0.000009810    0.000021125   -0.000012380
      3        8           0.000005317   -0.000118979   -0.000027345
 -------------------------------------------------------------------
 Cartesian Forces:  Max     0.000118979 RMS     0.000054571

 GradGradGradGradGradGradGradGradGradGradGradGradGradGradGradGradGradGrad
 Berny optimization.
 Using GEDIIS/GDIIS optimizer.
 FormGI is forming the generalized inverse of G from B-inverse, IUseBI=4.
 Internal  Forces:  Max     0.000105009 RMS     0.000063444
 Search for a local minimum.
 Step number   4 out of a maximum of   20
 All quantities printed in internal units (Hartrees-Bohrs-Radians)
 Mixed Optimization -- En-DIIS/RFO-DIIS
 Swapping is turned off.
 Update second derivatives using D2CorX and points    1    2    3    4
 DE= -2.51D-06 DEPred=-2.48D-06 R= 1.01D+00
 TightC=F SS=  1.41D+00  RLast= 4.27D-03 DXNew= 8.4853D-01 1.2802D-02
 Trust test= 1.01D+00 RLast= 4.27D-03 DXMaxT set to 5.05D-01
 The second derivative matrix:
                          R1        R2        A1
           R1           0.53279
           R2          -0.01005   0.40768
           A1           0.00587  -0.00252   0.16914
 ITU=  1  1  1  0
     Eigenvalues ---    0.16902   0.40690   0.53369
 En-DIIS/RFO-DIIS IScMMF=        0 using points:     4    3
 RFO step:  Lambda=-1.71963791D-08.
 DidBck=F Rises=F RFO-DIIS coefs:    1.02437   -0.02437
 Iteration  1 RMS(Cart)=  0.00009934 RMS(Int)=  0.00000001
 Iteration  2 RMS(Cart)=  0.00000000 RMS(Int)=  0.00000000
 ClnCor:  largest displacement from symmetrization is 1.59D-15 for atom     1.
 Variable       Old X    -DE/DX   Delta X   Delta X   Delta X     New X
                                 (Linear)    (Quad)   (Total)
    R1        1.85195  -0.00011  -0.00004  -0.00016  -0.00020   1.85176
    R2        1.85169   0.00002   0.00004   0.00001   0.00005   1.85174
    A1        1.79270   0.00002  -0.00009   0.00023   0.00014   1.79284
         Item               Value     Threshold  Converged?
 Maximum Force            0.000105     0.000450     YES
 RMS     Force            0.000063     0.000300     YES
 Maximum Displacement     0.000119     0.001800     YES
 RMS     Displacement     0.000099     0.001200     YES
 Predicted change in Energy=-1.256196D-08
 Optimization completed.
    -- Stationary point found.
                           ----------------------------
                           !   Optimized Parameters   !
                           ! (Angstroms and Degrees)  !
 --------------------------                            --------------------------
 ! Name  Definition              Value          Derivative Info.                !
 --------------------------------------------------------------------------------
 ! R1    R(1,3)                  0.98           -DE/DX =   -0.0001              !
 ! R2    R(2,3)                  0.9799         -DE/DX =    0.0                 !
 ! A1    A(1,3,2)              102.714          -DE/DX =    0.0                 !
 --------------------------------------------------------------------------------
 GradGradGradGradGradGradGradGradGradGradGradGradGradGradGradGradGradGrad

                          Input orientation:                          
 ---------------------------------------------------------------------
 Center     Atomic      Atomic             Coordinates (Angstroms)
 Number     Number       Type             X           Y           Z
 ---------------------------------------------------------------------
      1          1           0        0.593110   -0.439721   -0.207640
      2          1           0        0.125296    0.939009   -0.680409
      3          8           0        0.581594    0.500713    0.067813
 ---------------------------------------------------------------------
                    Distance matrix (angstroms):
                    1          2          3
     1  H    0.000000
     2  H    1.530770   0.000000
     3  O    0.980012   0.979871   0.000000
 Stoichiometry    H2O
 Framework group  CS[SG(H2O)]
 Deg. of freedom     3
 Full point group                 CS      NOp   2
 Largest Abelian subgroup         CS      NOp   2
 Largest concise Abelian subgroup C1      NOp   1
                         Standard orientation:                         
 ---------------------------------------------------------------------
 Center     Atomic      Atomic             Coordinates (Angstroms)
 Number     Number       Type             X           Y           Z
 ---------------------------------------------------------------------
      1          1           0        0.765385   -0.489665    0.000000
      2          1           0       -0.765385   -0.489440    0.000000
      3          8           0        0.000000    0.122388    0.000000
 ---------------------------------------------------------------------
 Rotational constants (GHZ):    753.9268091    427.9983647    273.0117342

 **********************************************************************

            Population analysis using the SCF density.

 **********************************************************************

 Orbital symmetries:
       Occupied  (A') (A') (A') (A') (A")
       Virtual   (A') (A') (A') (A') (A") (A') (A') (A') (A') (A")
                 (A") (A') (A') (A')
 The electronic state is 1-A'.
 Alpha  occ. eigenvalues --  -18.78552  -0.89471  -0.45081  -0.30863  -0.22325
 Alpha virt. eigenvalues --    0.03334   0.11543   0.71670   0.79175   0.83670
 Alpha virt. eigenvalues --    0.84871   1.00245   1.15035   1.67227   1.69314
 Alpha virt. eigenvalues --    1.72420   2.20106   2.48395   3.45639
          Condensed to atoms (all electrons):
               1          2          3
     1  H    0.428210  -0.024444   0.229555
     2  H   -0.024444   0.428176   0.229559
     3  O    0.229555   0.229559   8.274273
 Mulliken charges:
               1
     1  H    0.366679
     2  H    0.366709
     3  O   -0.733387
 Sum of Mulliken charges =   0.00000
 Mulliken charges with hydrogens summed into heavy atoms:
               1
     3  O    0.000000
 Electronic spatial extent (au):  <R**2>=             19.4303
 Charge=              0.00000000000000 electrons
 Dipole moment (field-independent basis, Debye):
    X=             -0.00014947882145    Y=             -2.03758143991389    Z=              0.00000000000000  Tot=              2.03758144539684
 Quadrupole moment (field-independent basis, Debye-Ang):
   XX=             -4.39804981905643   YY=             -6.00544058018848   ZZ=             -7.22555461874820
   XY=             -0.00030250187062   XZ=              0.00000000000000   YZ=              0.00000000000000
 Traceless Quadrupole moment (field-independent basis, Debye-Ang):
   XX=              1.47829852027460   YY=             -0.12909224085744   ZZ=             -1.34920627941717
   XY=             -0.00030250187062   XZ=              0.00000000000000   YZ=              0.00000000000000
 Octapole moment (field-independent basis, Debye-Ang**2):
  XXX=             -0.00029785542561  YYY=             -1.10932459644716  ZZZ=              0.00000000000000  XYY=              0.00017712498550
  XXY=             -1.14126633893390  XXZ=              0.00000000000000  XZZ=             -0.00010335037483  YZZ=             -0.29239954014781
  YYZ=              0.00000000000000  XYZ=              0.00000000000000
 Hexadecapole moment (field-independent basis, Debye-Ang**3):
 XXXX=             -6.43632990239445 YYYY=             -6.48640865673089 ZZZZ=             -5.25401899288861 XXXY=              0.00014198702110
 XXXZ=              0.00000000000000 YYYX=              0.00008550843592 YYYZ=              0.00000000000000 ZZZX=              0.00000000000000
 ZZZY=              0.00000000000000 XXYY=             -1.83258924039992 XXZZ=             -2.17659952632950 YYZZ=             -2.00863965999392
 XXYZ=              0.00000000000000 YYXZ=              0.00000000000000 ZZXY=              0.00011452903366
 N-N= 8.985837181121D+00 E-N=-1.985284893157D+02  KE= 7.579446802639D+01
 Symmetry A'   KE= 7.118411894304D+01
 Symmetry A"   KE= 4.610349083357D+00
 1\1\GINC-ILMFIXE086\FOpt\RBLYP\6-31G(d)\H2O1\ALLOUCHE\14-Feb-2018\0\\#
  BLYP/6-31G* Opt Freq\\Gaussian file generated by cchemi\\0,1\H,0.5931
 103149,-0.4397209976,-0.2076395051\H,0.1252958945,0.9390087889,-0.6804
 08859\O,0.5815937906,0.5007132087,0.0678133641\\Version=EM64L-G09RevD.
 01\State=1-A'\HF=-76.3885439\RMSD=1.605e-09\RMSF=5.457e-05\Dipole=-0.2
 913513,-0.3288496,-0.670529\Quadrupole=-0.6869412,0.8548643,-0.1679231
 ,-0.4433929,0.4741842,-0.2735177\PG=CS [SG(H2O1)]\\@


 HE THAT RISETH LATE MUST TROT ALL DAY.

                  -- BENJAMIN FRANKLIN
 Job cpu time:       0 days  0 hours  0 minutes  7.0 seconds.
 File lengths (MBytes):  RWF=      5 Int=      0 D2E=      0 Chk=      1 Scr=      1
 Normal termination of Gaussian 09 at Wed Feb 14 10:22:41 2018.
 Link1:  Proceeding to internal job step number  2.
 -------------------------------------------------------------------
 #N Geom=AllCheck Guess=TCheck SCRF=Check GenChk RBLYP/6-31G(d) Freq
 -------------------------------------------------------------------
 1/10=4,29=7,30=1,38=1,40=1/1,3;
 2/12=2,40=1/2;
 3/5=1,6=6,7=1,11=2,14=-4,16=1,25=1,30=1,70=2,71=2,74=402,116=1,140=1/1,2,3;
 4/5=101/1;
 5/5=2,98=1/2;
 8/6=4,10=90,11=11/1;
 11/6=1,8=1,9=11,15=111,16=1/1,2,10;
 10/6=1/2;
 6/7=2,8=2,9=2,10=2,18=1,28=1/1;
 7/8=1,10=1,25=1/1,2,3,16;
 1/10=4,30=1/3;
 99//99;
 Structure from the checkpoint file:  "/tmp/allouche/21201/Gau-11802.chk"
 ---------------------------------
 Gaussian file generated by cchemi
 ---------------------------------
 Charge =  0 Multiplicity = 1
 Redundant internal coordinates found in file.
 H,0,0.5931103149,-0.4397209976,-0.2076395051
 H,0,0.1252958945,0.9390087889,-0.680408859
 O,0,0.5815937906,0.5007132087,0.0678133641
 Recover connectivity data from disk.

 GradGradGradGradGradGradGradGradGradGradGradGradGradGradGradGradGradGrad
 Berny optimization.
 Initialization pass.
                           ----------------------------
                           !    Initial Parameters    !
                           ! (Angstroms and Degrees)  !
 --------------------------                            --------------------------
 ! Name  Definition              Value          Derivative Info.                !
 --------------------------------------------------------------------------------
 ! R1    R(1,3)                  0.98           calculate D2E/DX2 analytically  !
 ! R2    R(2,3)                  0.9799         calculate D2E/DX2 analytically  !
 ! A1    A(1,3,2)              102.714          calculate D2E/DX2 analytically  !
 --------------------------------------------------------------------------------
 Trust Radius=3.00D-01 FncErr=1.00D-07 GrdErr=1.00D-07
 Number of steps in this run=      2 maximum allowed number of steps=      2.
 GradGradGradGradGradGradGradGradGradGradGradGradGradGradGradGradGradGrad

                          Input orientation:                          
 ---------------------------------------------------------------------
 Center     Atomic      Atomic             Coordinates (Angstroms)
 Number     Number       Type             X           Y           Z
 ---------------------------------------------------------------------
      1          1           0        0.593110   -0.439721   -0.207640
      2          1           0        0.125296    0.939009   -0.680409
      3          8           0        0.581594    0.500713    0.067813
 ---------------------------------------------------------------------
                    Distance matrix (angstroms):
                    1          2          3
     1  H    0.000000
     2  H    1.530770   0.000000
     3  O    0.980012   0.979871   0.000000
 Stoichiometry    H2O
 Framework group  CS[SG(H2O)]
 Deg. of freedom     3
 Full point group                 CS      NOp   2
 Largest Abelian subgroup         CS      NOp   2
 Largest concise Abelian subgroup C1      NOp   1
                         Standard orientation:                         
 ---------------------------------------------------------------------
 Center     Atomic      Atomic             Coordinates (Angstroms)
 Number     Number       Type             X           Y           Z
 ---------------------------------------------------------------------
      1          1           0        0.765385   -0.489665    0.000000
      2          1           0       -0.765385   -0.489440    0.000000
      3          8           0        0.000000    0.122388    0.000000
 ---------------------------------------------------------------------
 Rotational constants (GHZ):    753.9268091    427.9983647    273.0117342
 Standard basis: 6-31G(d) (6D, 7F)
 There are    15 symmetry adapted cartesian basis functions of A'  symmetry.
 There are     4 symmetry adapted cartesian basis functions of A"  symmetry.
 There are    15 symmetry adapted basis functions of A'  symmetry.
 There are     4 symmetry adapted basis functions of A"  symmetry.
    19 basis functions,    36 primitive gaussians,    19 cartesian basis functions
     5 alpha electrons        5 beta electrons
       nuclear repulsion energy         8.9858371811 Hartrees.
 NAtoms=    3 NActive=    3 NUniq=    3 SFac= 1.00D+00 NAtFMM=   60 NAOKFM=F Big=F
 Integral buffers will be    131072 words long.
 Raffenetti 2 integral format.
 Two-electron integral symmetry is turned on.
 One-electron integrals computed using PRISM.
 NBasis=    19 RedAO= T EigKep=  3.27D-02  NBF=    15     4
 NBsUse=    19 1.00D-06 EigRej= -1.00D+00 NBFU=    15     4
 Initial guess from the checkpoint file:  "/tmp/allouche/21201/Gau-11802.chk"
 B after Tr=     0.000000    0.000000    0.000000
         Rot=    1.000000    0.000000    0.000000    0.000000 Ang=   0.00 deg.
 Initial guess orbital symmetries:
       Occupied  (A') (A') (A') (A') (A")
       Virtual   (A') (A') (A') (A') (A") (A') (A') (A') (A') (A")
                 (A") (A') (A') (A')
 Keep J ints in memory in symmetry-blocked form, NReq=898160.
 Requested convergence on RMS density matrix=1.00D-08 within 128 cycles.
 Requested convergence on MAX density matrix=1.00D-06.
 Requested convergence on             energy=1.00D-06.
 No special actions if energy rises.
 SCF Done:  E(RB-LYP) =  -76.3885438920     A.U. after    1 cycles
            NFock=  1  Conv=0.32D-09     -V/T= 2.0078
 Range of M.O.s used for correlation:     1    19
 NBasis=    19 NAE=     5 NBE=     5 NFC=     0 NFV=     0
 NROrb=     19 NOA=     5 NOB=     5 NVA=    14 NVB=    14
 Symmetrizing basis deriv contribution to polar:
 IMax=3 JMax=2 DiffMx= 0.00D+00
 G2DrvN: will do     4 centers at a time, making    1 passes.
 Calling FoFCou, ICntrl=  3507 FMM=F I1Cent=   0 AccDes= 0.00D+00.
 End of G2Drv F.D. properties file   721 does not exist.
 End of G2Drv F.D. properties file   722 does not exist.
 End of G2Drv F.D. properties file   788 does not exist.
          IDoAtm=111
          Differentiating once with respect to electric field.
                with respect to dipole field.
          Differentiating once with respect to nuclear coordinates.
 Keep J ints in memory in symmetry-blocked form, NReq=877343.
          There are    12 degrees of freedom in the 1st order CPHF.  IDoFFX=6 NUNeed=     3.
      9 vectors produced by pass  0 Test12= 5.83D-16 8.33D-09 XBig12= 5.09D+00 1.68D+00.
 AX will form     9 AO Fock derivatives at one time.
      9 vectors produced by pass  1 Test12= 5.83D-16 8.33D-09 XBig12= 7.29D-01 4.21D-01.
      9 vectors produced by pass  2 Test12= 5.83D-16 8.33D-09 XBig12= 2.14D-03 1.92D-02.
      9 vectors produced by pass  3 Test12= 5.83D-16 8.33D-09 XBig12= 3.38D-07 2.95D-04.
      4 vectors produced by pass  4 Test12= 5.83D-16 8.33D-09 XBig12= 3.83D-12 9.18D-07.
 InvSVY:  IOpt=1 It=  1 EMax= 7.77D-16
 Solved reduced A of dimension    40 with     9 vectors.
 Isotropic polarizability for W=    0.000000        5.46 Bohr**3.
 End of Minotr F.D. properties file   721 does not exist.
 End of Minotr F.D. properties file   722 does not exist.
 End of Minotr F.D. properties file   788 does not exist.

 **********************************************************************

            Population analysis using the SCF density.

 **********************************************************************

 Orbital symmetries:
       Occupied  (A') (A') (A') (A') (A")
       Virtual   (A') (A') (A') (A') (A") (A') (A') (A') (A') (A")
                 (A") (A') (A') (A')
 The electronic state is 1-A'.
 Alpha  occ. eigenvalues --  -18.78552  -0.89471  -0.45081  -0.30863  -0.22325
 Alpha virt. eigenvalues --    0.03334   0.11543   0.71670   0.79175   0.83670
 Alpha virt. eigenvalues --    0.84871   1.00245   1.15035   1.67227   1.69314
 Alpha virt. eigenvalues --    1.72420   2.20106   2.48395   3.45639
          Condensed to atoms (all electrons):
               1          2          3
     1  H    0.428210  -0.024444   0.229555
     2  H   -0.024444   0.428176   0.229559
     3  O    0.229555   0.229559   8.274273
 Mulliken charges:
               1
     1  H    0.366679
     2  H    0.366709
     3  O   -0.733387
 Sum of Mulliken charges =   0.00000
 Mulliken charges with hydrogens summed into heavy atoms:
               1
     3  O    0.000000
 APT charges:
               1
     1  H    0.219157
     2  H    0.219185
     3  O   -0.438342
 Sum of APT charges =   0.00000
 APT charges with hydrogens summed into heavy atoms:
               1
     3  O    0.000000
 Electronic spatial extent (au):  <R**2>=             19.4303
 Charge=              0.00000000000000 electrons
 Dipole moment (field-independent basis, Debye):
    X=             -0.00014946727597    Y=             -2.03758146872836    Z=              0.00000000000000  Tot=              2.03758147421046
 Quadrupole moment (field-independent basis, Debye-Ang):
   XX=             -4.39804978657194   YY=             -6.00544056084659   ZZ=             -7.22555460626122
   XY=             -0.00030250629936   XZ=              0.00000000000000   YZ=              0.00000000000000
 Traceless Quadrupole moment (field-independent basis, Debye-Ang):
   XX=              1.47829853132131   YY=             -0.12909224295334   ZZ=             -1.34920628836797
   XY=             -0.00030250629936   XZ=              0.00000000000000   YZ=              0.00000000000000
 Octapole moment (field-independent basis, Debye-Ang**2):
  XXX=             -0.00029784164782  YYY=             -1.10932462190240  ZZZ=              0.00000000000000  XYY=              0.00017713054096
  XXY=             -1.14126636004227  XXZ=              0.00000000000000  XZZ=             -0.00010334813287  YZZ=             -0.29239954595329
  YYZ=              0.00000000000000  XYZ=              0.00000000000000
 Hexadecapole moment (field-independent basis, Debye-Ang**3):
 XXXX=             -6.43632983880732 YYYY=             -6.48640862486496 ZZZZ=             -5.25401897597074 XXXY=              0.00014198102429
 XXXZ=              0.00000000000000 YYYX=              0.00008550455957 YYYZ=              0.00000000000000 ZZZX=              0.00000000000000
 ZZZY=              0.00000000000000 XXYY=             -1.83258922072057 XXZZ=             -2.17659951565811 YYZZ=             -2.00863965226009
 XXYZ=              0.00000000000000 YYXZ=              0.00000000000000 ZZXY=              0.00011452819707
 N-N= 8.985837181121D+00 E-N=-1.985284893867D+02  KE= 7.579446805792D+01
 Symmetry A'   KE= 7.118411896737D+01
 Symmetry A"   KE= 4.610349090552D+00
  Exact polarizability:   7.777  -0.001   5.751   0.000   0.000   2.850
 Approx polarizability:  11.067  -0.002   8.490   0.000   0.000   3.381
 Calling FoFJK, ICntrl=    100527 FMM=F ISym2X=1 I1Cent= 0 IOpClX= 0 NMat=1 NMatS=1 NMatT=0.
 Full mass-weighted force constant matrix:
 Low frequencies ---  -55.8932  -31.8388   -0.0016   -0.0015   -0.0006   26.0777
 Low frequencies --- 1682.0658 3568.4769 3690.7960
 Diagonal vibrational polarizability:
        0.0159116       0.5965973       0.0000000
 Harmonic frequencies (cm**-1), IR intensities (KM/Mole), Raman scattering
 activities (A**4/AMU), depolarization ratios for plane and unpolarized
 incident light, reduced masses (AMU), force constants (mDyne/A),
 and normal coordinates:
                      1                      2                      3
                     A'                     A'                     A'
 Frequencies --   1682.06569606018100              3568.47685976199700              3690.79592171402500
 Red. masses --      1.08246705455031                 1.04536340683819                 1.08006929558822
 Frc consts  --      1.80447454790629                 7.84301830809456                 8.66845800888949
 IR Inten    --     62.72320607673228                 0.00416812496090                 8.05375549952171
  Atom  AN      X      Y      Z        X      Y      Z        X      Y      Z
     1   1     0.428813878894   0.559962641237   0.000000000000    -0.587931727473   0.400379669958   0.000000000000     0.546540409032  -0.437518344047   0.000000000000
     2   1    -0.428840489130   0.560067773981   0.000000000000     0.579998489728   0.393864750705   0.000000000000     0.555337562223   0.443453536554   0.000000000000
     3   8     0.000001676687  -0.070572098699   0.000000000000     0.000499866101  -0.050044619222   0.000000000000    -0.069428329700  -0.000373971087   0.000000000000

 -------------------
 - Thermochemistry -
 -------------------
 Temperature   298.150 Kelvin.  Pressure   1.00000 Atm.
 Atom     1 has atomic number  1 and mass   1.00783
 Atom     2 has atomic number  1 and mass   1.00783
 Atom     3 has atomic number  8 and mass  15.99491
 Molecular mass:    18.01056 amu.
 Principal axes and moments of inertia in atomic units:
                           1         2         3
     Eigenvalues --     2.39379   4.21670   6.61049
           X            1.00000   0.00034   0.00000
           Y           -0.00034   1.00000   0.00000
           Z            0.00000   0.00000   1.00000
 This molecule is an asymmetric top.
 Rotational symmetry number  1.
 Rotational temperatures (Kelvin)     36.18274    20.54066    13.10248
 Rotational constants (GHZ):         753.92681   427.99836   273.01173
 Zero-point vibrational energy      53481.1 (Joules/Mol)
                                   12.78228 (Kcal/Mol)
 Vibrational temperatures:   2420.11  5134.24  5310.23
          (Kelvin)
 
 Zero-point correction=                           0.020370 (Hartree/Particle)
 Thermal correction to Energy=                    0.023205
 Thermal correction to Enthalpy=                  0.024149
 Thermal correction to Gibbs Free Energy=         0.002012
 Sum of electronic and zero-point Energies=            -76.368174
 Sum of electronic and thermal Energies=               -76.365339
 Sum of electronic and thermal Enthalpies=             -76.364395
 Sum of electronic and thermal Free Energies=          -76.386532
 
                     E (Thermal)             CV                S
                      KCal/Mol        Cal/Mol-Kelvin    Cal/Mol-Kelvin
 Total                   14.561              6.001             46.590
 Electronic               0.000              0.000              0.000
 Translational            0.889              2.981             34.608
 Rotational               0.889              2.981             11.977
 Vibrational             12.784              0.039              0.005
                       Q            Log10(Q)             Ln(Q)
 Total Bot       0.118686D+00         -0.925600         -2.131274
 Total V=0       0.277887D+09          8.443868         19.442725
 Vib (Bot)       0.427229D-09         -9.369339        -21.573701
 Vib (V=0)       0.100030D+01          0.000130          0.000298
 Electronic      0.100000D+01          0.000000          0.000000
 Translational   0.300432D+07          6.477746         14.915562
 Rotational      0.924682D+02          1.965993          4.526865
 ***** Axes restored to original set *****
 -------------------------------------------------------------------
 Center     Atomic                   Forces (Hartrees/Bohr)
 Number     Number              X              Y              Z
 -------------------------------------------------------------------
      1        1           0.000004493    0.000097855    0.000039726
      2        1          -0.000009810    0.000021126   -0.000012379
      3        8           0.000005317   -0.000118980   -0.000027346
 -------------------------------------------------------------------
 Cartesian Forces:  Max     0.000118980 RMS     0.000054571
 FormGI is forming the generalized inverse of G from B-inverse, IUseBI=4.

 GradGradGradGradGradGradGradGradGradGradGradGradGradGradGradGradGradGrad
 Berny optimization.
 Internal  Forces:  Max     0.000105010 RMS     0.000063445
 Search for a local minimum.
 Step number   1 out of a maximum of    2
 All quantities printed in internal units (Hartrees-Bohrs-Radians)
 Second derivative matrix not updated -- analytic derivatives used.
 The second derivative matrix:
                          R1        R2        A1
           R1           0.47311
           R2          -0.00902   0.47358
           A1           0.03133   0.03132   0.17606
 ITU=  0
     Eigenvalues ---    0.16941   0.47097   0.48237
 Angle between quadratic step and forces=  23.21 degrees.
 Linear search not attempted -- first point.
 Iteration  1 RMS(Cart)=  0.00011231 RMS(Int)=  0.00000001
 Iteration  2 RMS(Cart)=  0.00000001 RMS(Int)=  0.00000000
 ClnCor:  largest displacement from symmetrization is 2.48D-15 for atom     1.
 Variable       Old X    -DE/DX   Delta X   Delta X   Delta X     New X
                                 (Linear)    (Quad)   (Total)
    R1        1.85195  -0.00011   0.00000  -0.00023  -0.00023   1.85172
    R2        1.85169   0.00002   0.00000   0.00003   0.00003   1.85172
    A1        1.79270   0.00002   0.00000   0.00016   0.00016   1.79286
         Item               Value     Threshold  Converged?
 Maximum Force            0.000105     0.000450     YES
 RMS     Force            0.000063     0.000300     YES
 Maximum Displacement     0.000133     0.001800     YES
 RMS     Displacement     0.000112     0.001200     YES
 Predicted change in Energy=-1.439282D-08
 Optimization completed.
    -- Stationary point found.
                           ----------------------------
                           !   Optimized Parameters   !
                           ! (Angstroms and Degrees)  !
 --------------------------                            --------------------------
 ! Name  Definition              Value          Derivative Info.                !
 --------------------------------------------------------------------------------
 ! R1    R(1,3)                  0.98           -DE/DX =   -0.0001              !
 ! R2    R(2,3)                  0.9799         -DE/DX =    0.0                 !
 ! A1    A(1,3,2)              102.714          -DE/DX =    0.0                 !
 --------------------------------------------------------------------------------
 GradGradGradGradGradGradGradGradGradGradGradGradGradGradGradGradGradGrad

 1\1\GINC-ILMFIXE086\Freq\RBLYP\6-31G(d)\H2O1\ALLOUCHE\14-Feb-2018\0\\#
 N Geom=AllCheck Guess=TCheck SCRF=Check GenChk RBLYP/6-31G(d) Freq\\Ga
 ussian file generated by cchemi\\0,1\H,0.5931103149,-0.4397209976,-0.2
 076395051\H,0.1252958945,0.9390087889,-0.680408859\O,0.5815937906,0.50
 07132087,0.0678133641\\Version=EM64L-G09RevD.01\State=1-A'\HF=-76.3885
 439\RMSD=3.155e-10\RMSF=5.457e-05\ZeroPoint=0.0203699\Thermal=0.023204
 7\Dipole=-0.2913513,-0.3288496,-0.670529\DipoleDeriv=0.3299239,-0.0155
 937,-0.0373464,-0.0013455,0.0810189,-0.0867251,-0.032834,-0.1144231,0.
 2465279,0.2756573,0.0480055,-0.1227764,0.033795,0.2616532,0.0387823,-0
 .127277,0.0664072,0.1202434,-0.6055812,-0.0324118,0.1601229,-0.0324494
 ,-0.3426721,0.0479427,0.1601109,0.0480159,-0.3667713\Polar=3.6933951,-
 0.9234493,7.335487,1.3467689,-0.3746367,5.3495988\PG=CS [SG(H2O1)]\NIm
 ag=0\\0.01180405,-0.01898005,0.44655700,0.01701500,0.10454321,0.066145
 41,-0.00139972,-0.00480777,-0.00428238,0.10160332,0.02524992,-0.023292
 14,0.04170222,-0.10068569,0.14809455,0.00523706,-0.01672925,0.00490239
 ,0.16584077,-0.14879350,0.27515697,-0.01040433,0.02378782,-0.01273262,
 -0.10020361,0.07543577,-0.17107783,0.11060794,-0.00626987,-0.42326486,
 -0.14624542,0.10549345,-0.12480241,0.16552275,-0.09922358,0.54806728,-
 0.02225205,-0.08781396,-0.07104779,-0.16155839,0.10709128,-0.28005936,
 0.18381044,-0.01927732,0.35110715\\-0.00000449,-0.00009785,-0.00003973
 ,0.00000981,-0.00002113,0.00001238,-0.00000532,0.00011898,0.00002735\\
 \@


 If your ship doesn't come in, swim out to it!
                          -- Jonathan Winters
 Job cpu time:       0 days  0 hours  0 minutes  3.3 seconds.
 File lengths (MBytes):  RWF=      5 Int=      0 D2E=      0 Chk=      1 Scr=      1
 Normal termination of Gaussian 09 at Wed Feb 14 10:22:44 2018.
