 Entering Gaussian System, Link 0=/opt/local/Softwares/G09DSrc-Corr5/g09/g09
 Initial command:
 /opt/local/Softwares/G09DSrc-Corr5/g09/l1.exe "/tmp/allouche/20270/Gau-30264.inp" -scrdir="/tmp/allouche/20270/"
 Entering Link 1 = /opt/local/Softwares/G09DSrc-Corr5/g09/l1.exe PID=     30266.
  
 Copyright (c) 1988,1990,1992,1993,1995,1998,2003,2009,2013,
            Gaussian, Inc.  All Rights Reserved.
  
 This is part of the Gaussian(R) 09 program.  It is based on
 the Gaussian(R) 03 system (copyright 2003, Gaussian, Inc.),
 the Gaussian(R) 98 system (copyright 1998, Gaussian, Inc.),
 the Gaussian(R) 94 system (copyright 1995, Gaussian, Inc.),
 the Gaussian 92(TM) system (copyright 1992, Gaussian, Inc.),
 the Gaussian 90(TM) system (copyright 1990, Gaussian, Inc.),
 the Gaussian 88(TM) system (copyright 1988, Gaussian, Inc.),
 the Gaussian 86(TM) system (copyright 1986, Carnegie Mellon
 University), and the Gaussian 82(TM) system (copyright 1983,
 Carnegie Mellon University). Gaussian is a federally registered
 trademark of Gaussian, Inc.
  
 This software contains proprietary and confidential information,
 including trade secrets, belonging to Gaussian, Inc.
  
 This software is provided under written license and may be
 used, copied, transmitted, or stored only in accord with that
 written license.
  
 The following legend is applicable only to US Government
 contracts under FAR:
  
                    RESTRICTED RIGHTS LEGEND
  
 Use, reproduction and disclosure by the US Government is
 subject to restrictions as set forth in subparagraphs (a)
 and (c) of the Commercial Computer Software - Restricted
 Rights clause in FAR 52.227-19.
  
 Gaussian, Inc.
 340 Quinnipiac St., Bldg. 40, Wallingford CT 06492
  
  
 ---------------------------------------------------------------
 Warning -- This program may not be used in any manner that
 competes with the business of Gaussian, Inc. or will provide
 assistance to any competitor of Gaussian, Inc.  The licensee
 of this program is prohibited from giving any competitor of
 Gaussian, Inc. access to this program.  By using this program,
 the user acknowledges that Gaussian, Inc. is engaged in the
 business of creating and licensing software in the field of
 computational chemistry and represents and warrants to the
 licensee that it is not a competitor of Gaussian, Inc. and that
 it will not use this program in any manner prohibited above.
 ---------------------------------------------------------------
  

 Cite this work as:
 Gaussian 09, Revision D.01,
 M. J. Frisch, G. W. Trucks, H. B. Schlegel, G. E. Scuseria, 
 M. A. Robb, J. R. Cheeseman, G. Scalmani, V. Barone, B. Mennucci, 
 G. A. Petersson, H. Nakatsuji, M. Caricato, X. Li, H. P. Hratchian, 
 A. F. Izmaylov, J. Bloino, G. Zheng, J. L. Sonnenberg, M. Hada, 
 M. Ehara, K. Toyota, R. Fukuda, J. Hasegawa, M. Ishida, T. Nakajima, 
 Y. Honda, O. Kitao, H. Nakai, T. Vreven, J. A. Montgomery, Jr., 
 J. E. Peralta, F. Ogliaro, M. Bearpark, J. J. Heyd, E. Brothers, 
 K. N. Kudin, V. N. Staroverov, T. Keith, R. Kobayashi, J. Normand, 
 K. Raghavachari, A. Rendell, J. C. Burant, S. S. Iyengar, J. Tomasi, 
 M. Cossi, N. Rega, J. M. Millam, M. Klene, J. E. Knox, J. B. Cross, 
 V. Bakken, C. Adamo, J. Jaramillo, R. Gomperts, R. E. Stratmann, 
 O. Yazyev, A. J. Austin, R. Cammi, C. Pomelli, J. W. Ochterski, 
 R. L. Martin, K. Morokuma, V. G. Zakrzewski, G. A. Voth, 
 P. Salvador, J. J. Dannenberg, S. Dapprich, A. D. Daniels, 
 O. Farkas, J. B. Foresman, J. V. Ortiz, J. Cioslowski, 
 and D. J. Fox, Gaussian, Inc., Wallingford CT, 2013.
 
 ******************************************
 Gaussian 09:  EM64L-G09RevD.01 24-Apr-2013
                14-Feb-2018 
 ******************************************
 -----------------------
 # BLYP/6-31G** Opt Freq
 -----------------------
 1/14=-1,18=20,19=15,26=3,38=1/1,3;
 2/9=110,12=2,17=6,18=5,40=1/2;
 3/5=1,6=6,7=101,11=2,16=1,25=1,30=1,71=1,74=402/1,2,3;
 4//1;
 5/5=2,38=5/2;
 6/7=2,8=2,9=2,10=2,28=1/1;
 7//1,2,3,16;
 1/14=-1,18=20,19=15,26=3/3(2);
 2/9=110/2;
 99//99;
 2/9=110/2;
 3/5=1,6=6,7=101,11=2,16=1,25=1,30=1,71=1,74=402/1,2,3;
 4/5=5,16=3,69=1/1;
 5/5=2,38=5/2;
 7//1,2,3,16;
 1/14=-1,18=20,19=15,26=3/3(-5);
 2/9=110/2;
 6/7=2,8=2,9=2,10=2,19=2,28=1/1;
 99/9=1/99;
 ---------------------------------
 Gaussian file generated by cchemi
 ---------------------------------
 Symbolic Z-matrix:
 Charge =  0 Multiplicity = 1
 H                    0     0.6      -0.44454  -0.19577 
 H                    0     0.1       0.97655  -0.71769 
 O                    0     0.6       0.46799   0.09323 
 

 GradGradGradGradGradGradGradGradGradGradGradGradGradGradGradGradGradGrad
 Berny optimization.
 Initialization pass.
                           ----------------------------
                           !    Initial Parameters    !
                           ! (Angstroms and Degrees)  !
 --------------------------                            --------------------------
 ! Name  Definition              Value          Derivative Info.                !
 --------------------------------------------------------------------------------
 ! R1    R(1,3)                  0.9572         estimate D2E/DX2                !
 ! R2    R(2,3)                  1.0799         estimate D2E/DX2                !
 ! A1    A(1,3,2)              102.8398         estimate D2E/DX2                !
 --------------------------------------------------------------------------------
 Trust Radius=3.00D-01 FncErr=1.00D-07 GrdErr=1.00D-06
 Number of steps in this run=     20 maximum allowed number of steps=    100.
 GradGradGradGradGradGradGradGradGradGradGradGradGradGradGradGradGradGrad

                          Input orientation:                          
 ---------------------------------------------------------------------
 Center     Atomic      Atomic             Coordinates (Angstroms)
 Number     Number       Type             X           Y           Z
 ---------------------------------------------------------------------
      1          1           0        0.600000   -0.444539   -0.195772
      2          1           0        0.100000    0.976550   -0.717694
      3          8           0        0.600000    0.467990    0.093231
 ---------------------------------------------------------------------
                    Distance matrix (angstroms):
                    1          2          3
     1  H    0.000000
     2  H    1.594333   0.000000
     3  O    0.957200   1.079923   0.000000
 Stoichiometry    H2O
 Framework group  CS[SG(H2O)]
 Deg. of freedom     3
 Full point group                 CS      NOp   2
 Largest Abelian subgroup         CS      NOp   2
 Largest concise Abelian subgroup C1      NOp   1
                         Standard orientation:                         
 ---------------------------------------------------------------------
 Center     Atomic      Atomic             Coordinates (Angstroms)
 Number     Number       Type             X           Y           Z
 ---------------------------------------------------------------------
      1          1           0        0.791105   -0.411475    0.000000
      2          1           0       -0.791105   -0.607711    0.000000
      3          8           0        0.000000    0.127398    0.000000
 ---------------------------------------------------------------------
 Rotational constants (GHZ):    719.9250977    387.1923470    251.7795105
 Standard basis: 6-31G(d,p) (6D, 7F)
 There are    19 symmetry adapted cartesian basis functions of A'  symmetry.
 There are     6 symmetry adapted cartesian basis functions of A"  symmetry.
 There are    19 symmetry adapted basis functions of A'  symmetry.
 There are     6 symmetry adapted basis functions of A"  symmetry.
    25 basis functions,    42 primitive gaussians,    25 cartesian basis functions
     5 alpha electrons        5 beta electrons
       nuclear repulsion energy         8.6747333347 Hartrees.
 NAtoms=    3 NActive=    3 NUniq=    3 SFac= 1.00D+00 NAtFMM=   60 NAOKFM=F Big=F
 Integral buffers will be    131072 words long.
 Raffenetti 2 integral format.
 Two-electron integral symmetry is turned on.
 One-electron integrals computed using PRISM.
 NBasis=    25 RedAO= T EigKep=  3.35D-02  NBF=    19     6
 NBsUse=    25 1.00D-06 EigRej= -1.00D+00 NBFU=    19     6
 ExpMin= 1.61D-01 ExpMax= 5.48D+03 ExpMxC= 8.25D+02 IAcc=1 IRadAn=         1 AccDes= 0.00D+00
 Harris functional with IExCor=  402 and IRadAn=       1 diagonalized for initial guess.
 HarFok:  IExCor=  402 AccDes= 0.00D+00 IRadAn=         1 IDoV= 1 UseB2=F ITyADJ=14
 ICtDFT=  3500011 ScaDFX=  1.000000  1.000000  1.000000  1.000000
 FoFCou: FMM=F IPFlag=           0 FMFlag=      100000 FMFlg1=           0
         NFxFlg=           0 DoJE=T BraDBF=F KetDBF=T FulRan=T
         wScrn=  0.000000 ICntrl=     500 IOpCl=  0 I1Cent=   200000004 NGrid=           0
         NMat0=    1 NMatS0=      1 NMatT0=    0 NMatD0=    1 NMtDS0=    0 NMtDT0=    0
 Petite list used in FoFCou.
 Initial guess orbital symmetries:
       Occupied  (A') (A') (A') (A') (A")
       Virtual   (A') (A') (A') (A') (A") (A') (A') (A') (A') (A")
                 (A") (A') (A') (A') (A") (A") (A') (A') (A') (A')
 The electronic state of the initial guess is 1-A'.
 Keep J ints in memory in symmetry-blocked form, NReq=934324.
 Requested convergence on RMS density matrix=1.00D-08 within 128 cycles.
 Requested convergence on MAX density matrix=1.00D-06.
 Requested convergence on             energy=1.00D-06.
 No special actions if energy rises.
 Integral accuracy reduced to 1.0D-05 until final iterations.
 Initial convergence to 1.0D-05 achieved.  Increase integral accuracy.
 SCF Done:  E(RB-LYP) =  -76.3910147612     A.U. after   11 cycles
            NFock= 11  Conv=0.29D-08     -V/T= 2.0092

 **********************************************************************

            Population analysis using the SCF density.

 **********************************************************************

 Orbital symmetries:
       Occupied  (A') (A') (A') (A') (A")
       Virtual   (A') (A') (A') (A') (A") (A') (A') (A') (A") (A')
                 (A") (A') (A') (A') (A") (A") (A') (A') (A') (A')
 The electronic state is 1-A'.
 Alpha  occ. eigenvalues --  -18.79127  -0.88096  -0.43581  -0.30672  -0.22196
 Alpha virt. eigenvalues --    0.01733   0.10678   0.67249   0.74194   0.83625
 Alpha virt. eigenvalues --    0.84048   0.96158   1.12409   1.48050   1.48231
 Alpha virt. eigenvalues --    1.58890   2.05268   2.15808   2.31914   2.45609
 Alpha virt. eigenvalues --    2.60388   2.86444   3.13750   3.43508   3.57649
          Condensed to atoms (all electrons):
               1          2          3
     1  H    0.467187  -0.025053   0.264975
     2  H   -0.025053   0.498516   0.244001
     3  O    0.264975   0.244001   8.066450
 Mulliken charges:
               1
     1  H    0.292890
     2  H    0.282536
     3  O   -0.575426
 Sum of Mulliken charges =   0.00000
 Mulliken charges with hydrogens summed into heavy atoms:
               1
     3  O    0.000000
 Electronic spatial extent (au):  <R**2>=             19.9484
 Charge=              0.00000000000000 electrons
 Dipole moment (field-independent basis, Debye):
    X=              0.12709347314407    Y=             -1.97737765364712    Z=              0.00000000000000  Tot=              1.98145783100696
 Quadrupole moment (field-independent basis, Debye-Ang):
   XX=             -4.38681808668680   YY=             -5.97867683067047   ZZ=             -7.24284644162162
   XY=              0.26472400718251   XZ=              0.00000000000000   YZ=              0.00000000000000
 Traceless Quadrupole moment (field-independent basis, Debye-Ang):
   XX=              1.48262903297283   YY=             -0.10922971101084   ZZ=             -1.37339932196199
   XY=              0.26472400718251   XZ=              0.00000000000000   YZ=              0.00000000000000
 Octapole moment (field-independent basis, Debye-Ang**2):
  XXX=              0.27402959143568  YYY=             -1.00252362763878  ZZZ=              0.00000000000000  XYY=             -0.16189954817882
  XXY=             -1.18311023821212  XXZ=              0.00000000000000  XZZ=              0.09408074104354  YZZ=             -0.22198697135993
  YYZ=              0.00000000000000  XYZ=              0.00000000000000
 Hexadecapole moment (field-independent basis, Debye-Ang**3):
 XXXX=             -6.91257957437898 YYYY=             -6.85843782962857 ZZZZ=             -5.26996212885360 XXXY=             -0.14886785984076
 XXXZ=              0.00000000000000 YYYX=             -0.08306873765725 YYYZ=              0.00000000000000 ZZZX=              0.00000000000000
 ZZZY=              0.00000000000000 XXYY=             -1.89599198850288 XXZZ=             -2.30439549997336 YYZZ=             -2.09487669224749
 XXYZ=              0.00000000000000 YYXZ=              0.00000000000000 ZZXY=             -0.11266102954502
 N-N= 8.674733334742D+00 E-N=-1.978839073808D+02  KE= 7.569695210104D+01
 Symmetry A'   KE= 7.108068411897D+01
 Symmetry A"   KE= 4.616267982069D+00
 Calling FoFJK, ICntrl=      2527 FMM=F ISym2X=1 I1Cent= 0 IOpClX= 0 NMat=1 NMatS=1 NMatT=0.
 ***** Axes restored to original set *****
 -------------------------------------------------------------------
 Center     Atomic                   Forces (Hartrees/Bohr)
 Number     Number              X              Y              Z
 -------------------------------------------------------------------
      1        1          -0.001467536   -0.018733790   -0.008785953
      2        1           0.031248232   -0.034460451    0.049832045
      3        8          -0.029780695    0.053194241   -0.041046091
 -------------------------------------------------------------------
 Cartesian Forces:  Max     0.053194241 RMS     0.034122016

 GradGradGradGradGradGradGradGradGradGradGradGradGradGradGradGradGradGrad
 Berny optimization.
 FormGI is forming the generalized inverse of G from B-inverse, IUseBI=4.
 Internal  Forces:  Max     0.068115175 RMS     0.041197307
 Search for a local minimum.
 Step number   1 out of a maximum of   20
 All quantities printed in internal units (Hartrees-Bohrs-Radians)
 Mixed Optimization -- RFO/linear search
 Second derivative matrix not updated -- first step.
 The second derivative matrix:
                          R1        R2        A1
           R1           0.56080
           R2           0.00000   0.36004
           A1           0.00000   0.00000   0.16000
 ITU=  0
     Eigenvalues ---    0.16000   0.36004   0.56080
 RFO step:  Lambda=-1.33393077D-02 EMin= 1.60000000D-01
 Linear search not attempted -- first point.
 Iteration  1 RMS(Cart)=  0.08801126 RMS(Int)=  0.00240730
 Iteration  2 RMS(Cart)=  0.00207956 RMS(Int)=  0.00000300
 Iteration  3 RMS(Cart)=  0.00000290 RMS(Int)=  0.00000000
 Iteration  4 RMS(Cart)=  0.00000000 RMS(Int)=  0.00000000
 ClnCor:  largest displacement from symmetrization is 8.01D-16 for atom     2.
 Variable       Old X    -DE/DX   Delta X   Delta X   Delta X     New X
                                 (Linear)    (Quad)   (Total)
    R1        1.80885   0.02051   0.00000   0.03573   0.03573   1.84457
    R2        2.04076  -0.06812   0.00000  -0.18243  -0.18243   1.85833
    A1        1.79489  -0.00559   0.00000  -0.03224  -0.03224   1.76265
         Item               Value     Threshold  Converged?
 Maximum Force            0.068115     0.000450     NO 
 RMS     Force            0.041197     0.000300     NO 
 Maximum Displacement     0.088428     0.001800     NO 
 RMS     Displacement     0.087500     0.001200     NO 
 Predicted change in Energy=-6.907072D-03
 GradGradGradGradGradGradGradGradGradGradGradGradGradGradGradGradGradGrad

                          Input orientation:                          
 ---------------------------------------------------------------------
 Center     Atomic      Atomic             Coordinates (Angstroms)
 Number     Number       Type             X           Y           Z
 ---------------------------------------------------------------------
      1          1           0        0.588819   -0.431168   -0.213272
      2          1           0        0.126038    0.929756   -0.681896
      3          8           0        0.585142    0.501413    0.074933
 ---------------------------------------------------------------------
                    Distance matrix (angstroms):
                    1          2          3
     1  H    0.000000
     2  H    1.511916   0.000000
     3  O    0.976106   0.983384   0.000000
 Stoichiometry    H2O
 Framework group  CS[SG(H2O)]
 Deg. of freedom     3
 Full point group                 CS      NOp   2
 Largest Abelian subgroup         CS      NOp   2
 Largest concise Abelian subgroup C1      NOp   1
                         Standard orientation:                         
 ---------------------------------------------------------------------
 Center     Atomic      Atomic             Coordinates (Angstroms)
 Number     Number       Type             X           Y           Z
 ---------------------------------------------------------------------
      1          1           0        0.755936   -0.492879    0.000000
      2          1           0       -0.755936   -0.504322    0.000000
      3          8           0        0.000000    0.124650    0.000000
 ---------------------------------------------------------------------
 Rotational constants (GHZ):    726.9166797    438.7014740    273.5882397
 Standard basis: 6-31G(d,p) (6D, 7F)
 There are    19 symmetry adapted cartesian basis functions of A'  symmetry.
 There are     6 symmetry adapted cartesian basis functions of A"  symmetry.
 There are    19 symmetry adapted basis functions of A'  symmetry.
 There are     6 symmetry adapted basis functions of A"  symmetry.
    25 basis functions,    42 primitive gaussians,    25 cartesian basis functions
     5 alpha electrons        5 beta electrons
       nuclear repulsion energy         8.9919997132 Hartrees.
 NAtoms=    3 NActive=    3 NUniq=    3 SFac= 1.00D+00 NAtFMM=   60 NAOKFM=F Big=F
 Integral buffers will be    131072 words long.
 Raffenetti 2 integral format.
 Two-electron integral symmetry is turned on.
 One-electron integrals computed using PRISM.
 NBasis=    25 RedAO= T EigKep=  3.20D-02  NBF=    19     6
 NBsUse=    25 1.00D-06 EigRej= -1.00D+00 NBFU=    19     6
 Initial guess from the checkpoint file:  "/tmp/allouche/20270/Gau-30266.chk"
 B after Tr=     0.000000    0.000000    0.000000
         Rot=    0.999281    0.000000    0.000000    0.037926 Ang=   4.35 deg.
 Initial guess orbital symmetries:
       Occupied  (A') (A') (A') (A') (A")
       Virtual   (A') (A') (A') (A') (A') (A') (A') (A') (A') (A')
                 (A') (A') (A') (A') (A') (A") (A") (A") (A") (A")
 ExpMin= 1.61D-01 ExpMax= 5.48D+03 ExpMxC= 8.25D+02 IAcc=1 IRadAn=         1 AccDes= 0.00D+00
 Harris functional with IExCor=  402 and IRadAn=       1 diagonalized for initial guess.
 HarFok:  IExCor=  402 AccDes= 0.00D+00 IRadAn=         1 IDoV= 1 UseB2=F ITyADJ=14
 ICtDFT=  3500011 ScaDFX=  1.000000  1.000000  1.000000  1.000000
 FoFCou: FMM=F IPFlag=           0 FMFlag=      100000 FMFlg1=           0
         NFxFlg=           0 DoJE=T BraDBF=F KetDBF=T FulRan=T
         wScrn=  0.000000 ICntrl=     500 IOpCl=  0 I1Cent=   200000004 NGrid=           0
         NMat0=    1 NMatS0=      1 NMatT0=    0 NMatD0=    1 NMtDS0=    0 NMtDT0=    0
 Petite list used in FoFCou.
 Keep J ints in memory in symmetry-blocked form, NReq=934324.
 Requested convergence on RMS density matrix=1.00D-08 within 128 cycles.
 Requested convergence on MAX density matrix=1.00D-06.
 Requested convergence on             energy=1.00D-06.
 No special actions if energy rises.
 Integral accuracy reduced to 1.0D-05 until final iterations.
 Initial convergence to 1.0D-05 achieved.  Increase integral accuracy.
 SCF Done:  E(RB-LYP) =  -76.3987800145     A.U. after   10 cycles
            NFock= 10  Conv=0.56D-08     -V/T= 2.0080
 Calling FoFJK, ICntrl=      2527 FMM=F ISym2X=1 I1Cent= 0 IOpClX= 0 NMat=1 NMatS=1 NMatT=0.
 ***** Axes restored to original set *****
 -------------------------------------------------------------------
 Center     Atomic                   Forces (Hartrees/Bohr)
 Number     Number              X              Y              Z
 -------------------------------------------------------------------
      1        1           0.001183388   -0.001859770    0.001711480
      2        1           0.002746412   -0.000172325    0.005284386
      3        8          -0.003929800    0.002032095   -0.006995866
 -------------------------------------------------------------------
 Cartesian Forces:  Max     0.006995866 RMS     0.003524524

 GradGradGradGradGradGradGradGradGradGradGradGradGradGradGradGradGradGrad
 Berny optimization.
 Using GEDIIS/GDIIS optimizer.
 FormGI is forming the generalized inverse of G from B-inverse, IUseBI=4.
 Internal  Forces:  Max     0.005423943 RMS     0.004163987
 Search for a local minimum.
 Step number   2 out of a maximum of   20
 All quantities printed in internal units (Hartrees-Bohrs-Radians)
 Mixed Optimization -- RFO/linear search
 Update second derivatives using D2CorX and points    1    2
 DE= -7.77D-03 DEPred=-6.91D-03 R= 1.12D+00
 TightC=F SS=  1.41D+00  RLast= 1.89D-01 DXNew= 5.0454D-01 5.6601D-01
 Trust test= 1.12D+00 RLast= 1.89D-01 DXMaxT set to 5.05D-01
 The second derivative matrix:
                          R1        R2        A1
           R1           0.55931
           R2           0.00545   0.34032
           A1          -0.00767   0.02485   0.16623
 ITU=  1  0
 Use linear search instead of GDIIS.
     Eigenvalues ---    0.16258   0.34371   0.55958
 RFO step:  Lambda=-1.79420621D-04 EMin= 1.62579697D-01
 Quartic linear search produced a step of  0.05279.
 Iteration  1 RMS(Cart)=  0.01720100 RMS(Int)=  0.00019789
 Iteration  2 RMS(Cart)=  0.00018474 RMS(Int)=  0.00000000
 Iteration  3 RMS(Cart)=  0.00000000 RMS(Int)=  0.00000000
 ClnCor:  largest displacement from symmetrization is 1.14D-15 for atom     1.
 Variable       Old X    -DE/DX   Delta X   Delta X   Delta X     New X
                                 (Linear)    (Quad)   (Total)
    R1        1.84457   0.00128   0.00189   0.00055   0.00244   1.84701
    R2        1.85833  -0.00542  -0.00963  -0.00515  -0.01478   1.84355
    A1        1.76265   0.00458  -0.00170   0.03279   0.03109   1.79374
         Item               Value     Threshold  Converged?
 Maximum Force            0.005424     0.000450     NO 
 RMS     Force            0.004164     0.000300     NO 
 Maximum Displacement     0.016482     0.001800     NO 
 RMS     Displacement     0.017115     0.001200     NO 
 Predicted change in Energy=-1.186715D-04
 GradGradGradGradGradGradGradGradGradGradGradGradGradGradGradGradGradGrad

                          Input orientation:                          
 ---------------------------------------------------------------------
 Center     Atomic      Atomic             Coordinates (Angstroms)
 Number     Number       Type             X           Y           Z
 ---------------------------------------------------------------------
      1          1           0        0.592672   -0.437596   -0.207819
      2          1           0        0.126528    0.937074   -0.678627
      3          8           0        0.580800    0.500524    0.066211
 ---------------------------------------------------------------------
                    Distance matrix (angstroms):
                    1          2          3
     1  H    0.000000
     2  H    1.525998   0.000000
     3  O    0.977396   0.975563   0.000000
 Stoichiometry    H2O
 Framework group  CS[SG(H2O)]
 Deg. of freedom     3
 Full point group                 CS      NOp   2
 Largest Abelian subgroup         CS      NOp   2
 Largest concise Abelian subgroup C1      NOp   1
                         Standard orientation:                         
 ---------------------------------------------------------------------
 Center     Atomic      Atomic             Coordinates (Angstroms)
 Number     Number       Type             X           Y           Z
 ---------------------------------------------------------------------
      1          1           0        0.762997   -0.488974    0.000000
      2          1           0       -0.762997   -0.486037    0.000000
      3          8           0        0.000000    0.121876    0.000000
 ---------------------------------------------------------------------
 Rotational constants (GHZ):    760.2778140    430.6775666    274.9343966
 Standard basis: 6-31G(d,p) (6D, 7F)
 There are    19 symmetry adapted cartesian basis functions of A'  symmetry.
 There are     6 symmetry adapted cartesian basis functions of A"  symmetry.
 There are    19 symmetry adapted basis functions of A'  symmetry.
 There are     6 symmetry adapted basis functions of A"  symmetry.
    25 basis functions,    42 primitive gaussians,    25 cartesian basis functions
     5 alpha electrons        5 beta electrons
       nuclear repulsion energy         9.0175576745 Hartrees.
 NAtoms=    3 NActive=    3 NUniq=    3 SFac= 1.00D+00 NAtFMM=   60 NAOKFM=F Big=F
 Integral buffers will be    131072 words long.
 Raffenetti 2 integral format.
 Two-electron integral symmetry is turned on.
 One-electron integrals computed using PRISM.
 NBasis=    25 RedAO= T EigKep=  3.19D-02  NBF=    19     6
 NBsUse=    25 1.00D-06 EigRej= -1.00D+00 NBFU=    19     6
 Initial guess from the checkpoint file:  "/tmp/allouche/20270/Gau-30266.chk"
 B after Tr=     0.000000    0.000000    0.000000
         Rot=    0.999995    0.000000    0.000000    0.003109 Ang=   0.36 deg.
 Initial guess orbital symmetries:
       Occupied  (A') (A') (A') (A') (A")
       Virtual   (A') (A') (A') (A') (A') (A') (A') (A') (A') (A')
                 (A') (A') (A') (A') (A') (A") (A") (A") (A") (A")
 Keep J ints in memory in symmetry-blocked form, NReq=934324.
 Requested convergence on RMS density matrix=1.00D-08 within 128 cycles.
 Requested convergence on MAX density matrix=1.00D-06.
 Requested convergence on             energy=1.00D-06.
 No special actions if energy rises.
 SCF Done:  E(RB-LYP) =  -76.3988827838     A.U. after    7 cycles
            NFock=  7  Conv=0.61D-08     -V/T= 2.0079
 Calling FoFJK, ICntrl=      2527 FMM=F ISym2X=1 I1Cent= 0 IOpClX= 0 NMat=1 NMatS=1 NMatT=0.
 ***** Axes restored to original set *****
 -------------------------------------------------------------------
 Center     Atomic                   Forces (Hartrees/Bohr)
 Number     Number              X              Y              Z
 -------------------------------------------------------------------
      1        1          -0.000077151    0.001034305    0.000177591
      2        1          -0.000331715    0.000186144   -0.000585893
      3        8           0.000408865   -0.001220449    0.000408302
 -------------------------------------------------------------------
 Cartesian Forces:  Max     0.001220449 RMS     0.000616316

 GradGradGradGradGradGradGradGradGradGradGradGradGradGradGradGradGradGrad
 Berny optimization.
 Using GEDIIS/GDIIS optimizer.
 FormGI is forming the generalized inverse of G from B-inverse, IUseBI=4.
 Internal  Forces:  Max     0.001043394 RMS     0.000735075
 Search for a local minimum.
 Step number   3 out of a maximum of   20
 All quantities printed in internal units (Hartrees-Bohrs-Radians)
 Mixed Optimization -- En-DIIS/RFO-DIIS
 Update second derivatives using D2CorX and points    1    2    3
 DE= -1.03D-04 DEPred=-1.19D-04 R= 8.66D-01
 TightC=F SS=  1.41D+00  RLast= 3.45D-02 DXNew= 8.4853D-01 1.0353D-01
 Trust test= 8.66D-01 RLast= 3.45D-02 DXMaxT set to 5.05D-01
 The second derivative matrix:
                          R1        R2        A1
           R1           0.57808
           R2          -0.03503   0.41118
           A1           0.01261   0.00173   0.15521
 ITU=  1  1  0
 Use linear search instead of GDIIS.
     Eigenvalues ---    0.15481   0.40420   0.58547
 RFO step:  Lambda=-1.47649486D-06 EMin= 1.54808179D-01
 Quartic linear search produced a step of -0.08285.
 Iteration  1 RMS(Cart)=  0.00124974 RMS(Int)=  0.00000079
 Iteration  2 RMS(Cart)=  0.00000052 RMS(Int)=  0.00000000
 ClnCor:  largest displacement from symmetrization is 2.41D-15 for atom     1.
 Variable       Old X    -DE/DX   Delta X   Delta X   Delta X     New X
                                 (Linear)    (Quad)   (Total)
    R1        1.84701  -0.00104  -0.00020  -0.00148  -0.00168   1.84533
    R2        1.84355   0.00069   0.00122   0.00030   0.00153   1.84507
    A1        1.79374  -0.00025  -0.00258   0.00109  -0.00148   1.79225
         Item               Value     Threshold  Converged?
 Maximum Force            0.001043     0.000450     NO 
 RMS     Force            0.000735     0.000300     NO 
 Maximum Displacement     0.001377     0.001800     YES
 RMS     Displacement     0.001250     0.001200     NO 
 Predicted change in Energy=-1.588217D-06
 GradGradGradGradGradGradGradGradGradGradGradGradGradGradGradGradGradGrad

                          Input orientation:                          
 ---------------------------------------------------------------------
 Center     Atomic      Atomic             Coordinates (Angstroms)
 Number     Number       Type             X           Y           Z
 ---------------------------------------------------------------------
      1          1           0        0.592454   -0.436868   -0.208012
      2          1           0        0.126432    0.936734   -0.678920
      3          8           0        0.581114    0.500134    0.066697
 ---------------------------------------------------------------------
                    Distance matrix (angstroms):
                    1          2          3
     1  H    0.000000
     2  H    1.525029   0.000000
     3  O    0.976507   0.976371   0.000000
 Stoichiometry    H2O
 Framework group  CS[SG(H2O)]
 Deg. of freedom     3
 Full point group                 CS      NOp   2
 Largest Abelian subgroup         CS      NOp   2
 Largest concise Abelian subgroup C1      NOp   1
                         Standard orientation:                         
 ---------------------------------------------------------------------
 Center     Atomic      Atomic             Coordinates (Angstroms)
 Number     Number       Type             X           Y           Z
 ---------------------------------------------------------------------
      1          1           0        0.762514   -0.488046    0.000000
      2          1           0       -0.762514   -0.487829    0.000000
      3          8           0        0.000000    0.121984    0.000000
 ---------------------------------------------------------------------
 Rotational constants (GHZ):    758.9249362    431.2269251    274.9807627
 Standard basis: 6-31G(d,p) (6D, 7F)
 There are    19 symmetry adapted cartesian basis functions of A'  symmetry.
 There are     6 symmetry adapted cartesian basis functions of A"  symmetry.
 There are    19 symmetry adapted basis functions of A'  symmetry.
 There are     6 symmetry adapted basis functions of A"  symmetry.
    25 basis functions,    42 primitive gaussians,    25 cartesian basis functions
     5 alpha electrons        5 beta electrons
       nuclear repulsion energy         9.0181304896 Hartrees.
 NAtoms=    3 NActive=    3 NUniq=    3 SFac= 1.00D+00 NAtFMM=   60 NAOKFM=F Big=F
 Integral buffers will be    131072 words long.
 Raffenetti 2 integral format.
 Two-electron integral symmetry is turned on.
 One-electron integrals computed using PRISM.
 NBasis=    25 RedAO= T EigKep=  3.19D-02  NBF=    19     6
 NBsUse=    25 1.00D-06 EigRej= -1.00D+00 NBFU=    19     6
 Initial guess from the checkpoint file:  "/tmp/allouche/20270/Gau-30266.chk"
 B after Tr=     0.000000    0.000000    0.000000
         Rot=    1.000000    0.000000    0.000000   -0.000590 Ang=  -0.07 deg.
 Initial guess orbital symmetries:
       Occupied  (A') (A') (A') (A') (A")
       Virtual   (A') (A') (A') (A') (A') (A') (A') (A') (A') (A')
                 (A') (A') (A') (A') (A') (A") (A") (A") (A") (A")
 Keep J ints in memory in symmetry-blocked form, NReq=934324.
 Requested convergence on RMS density matrix=1.00D-08 within 128 cycles.
 Requested convergence on MAX density matrix=1.00D-06.
 Requested convergence on             energy=1.00D-06.
 No special actions if energy rises.
 SCF Done:  E(RB-LYP) =  -76.3988844797     A.U. after    7 cycles
            NFock=  7  Conv=0.56D-09     -V/T= 2.0079
 Calling FoFJK, ICntrl=      2527 FMM=F ISym2X=1 I1Cent= 0 IOpClX= 0 NMat=1 NMatS=1 NMatT=0.
 ***** Axes restored to original set *****
 -------------------------------------------------------------------
 Center     Atomic                   Forces (Hartrees/Bohr)
 Number     Number              X              Y              Z
 -------------------------------------------------------------------
      1        1          -0.000001669    0.000154047    0.000045544
      2        1           0.000015132   -0.000014152    0.000024934
      3        8          -0.000013463   -0.000139895   -0.000070478
 -------------------------------------------------------------------
 Cartesian Forces:  Max     0.000154047 RMS     0.000075702

 GradGradGradGradGradGradGradGradGradGradGradGradGradGradGradGradGradGrad
 Berny optimization.
 Using GEDIIS/GDIIS optimizer.
 FormGI is forming the generalized inverse of G from B-inverse, IUseBI=4.
 Internal  Forces:  Max     0.000160641 RMS     0.000094617
 Search for a local minimum.
 Step number   4 out of a maximum of   20
 All quantities printed in internal units (Hartrees-Bohrs-Radians)
 Mixed Optimization -- En-DIIS/RFO-DIIS
 Swapping is turned off.
 Update second derivatives using D2CorX and points    1    2    3    4
 DE= -1.70D-06 DEPred=-1.59D-06 R= 1.07D+00
 TightC=F SS=  1.41D+00  RLast= 2.71D-03 DXNew= 8.4853D-01 8.1359D-03
 Trust test= 1.07D+00 RLast= 2.71D-03 DXMaxT set to 5.05D-01
 The second derivative matrix:
                          R1        R2        A1
           R1           0.49592
           R2          -0.02250   0.44070
           A1           0.01036  -0.00466   0.15321
 ITU=  1  1  1  0
     Eigenvalues ---    0.15284   0.43269   0.50429
 En-DIIS/RFO-DIIS IScMMF=        0 using points:     4    3
 RFO step:  Lambda=-3.86481592D-08.
 DidBck=F Rises=F RFO-DIIS coefs:    1.07427   -0.07427
 Iteration  1 RMS(Cart)=  0.00015505 RMS(Int)=  0.00000000
 Iteration  2 RMS(Cart)=  0.00000000 RMS(Int)=  0.00000000
 ClnCor:  largest displacement from symmetrization is 2.24D-16 for atom     2.
 Variable       Old X    -DE/DX   Delta X   Delta X   Delta X     New X
                                 (Linear)    (Quad)   (Total)
    R1        1.84533  -0.00016  -0.00012  -0.00020  -0.00033   1.84500
    R2        1.84507  -0.00003   0.00011  -0.00020  -0.00009   1.84498
    A1        1.79225   0.00000  -0.00011   0.00013   0.00002   1.79228
         Item               Value     Threshold  Converged?
 Maximum Force            0.000161     0.000450     YES
 RMS     Force            0.000095     0.000300     YES
 Maximum Displacement     0.000206     0.001800     YES
 RMS     Displacement     0.000155     0.001200     YES
 Predicted change in Energy=-2.785634D-08
 Optimization completed.
    -- Stationary point found.
                           ----------------------------
                           !   Optimized Parameters   !
                           ! (Angstroms and Degrees)  !
 --------------------------                            --------------------------
 ! Name  Definition              Value          Derivative Info.                !
 --------------------------------------------------------------------------------
 ! R1    R(1,3)                  0.9765         -DE/DX =   -0.0002              !
 ! R2    R(2,3)                  0.9764         -DE/DX =    0.0                 !
 ! A1    A(1,3,2)              102.6886         -DE/DX =    0.0                 !
 --------------------------------------------------------------------------------
 GradGradGradGradGradGradGradGradGradGradGradGradGradGradGradGradGradGrad

                          Input orientation:                          
 ---------------------------------------------------------------------
 Center     Atomic      Atomic             Coordinates (Angstroms)
 Number     Number       Type             X           Y           Z
 ---------------------------------------------------------------------
      1          1           0        0.592454   -0.436868   -0.208012
      2          1           0        0.126432    0.936734   -0.678920
      3          8           0        0.581114    0.500134    0.066697
 ---------------------------------------------------------------------
                    Distance matrix (angstroms):
                    1          2          3
     1  H    0.000000
     2  H    1.525029   0.000000
     3  O    0.976507   0.976371   0.000000
 Stoichiometry    H2O
 Framework group  CS[SG(H2O)]
 Deg. of freedom     3
 Full point group                 CS      NOp   2
 Largest Abelian subgroup         CS      NOp   2
 Largest concise Abelian subgroup C1      NOp   1
                         Standard orientation:                         
 ---------------------------------------------------------------------
 Center     Atomic      Atomic             Coordinates (Angstroms)
 Number     Number       Type             X           Y           Z
 ---------------------------------------------------------------------
      1          1           0        0.762514   -0.488046    0.000000
      2          1           0       -0.762514   -0.487829    0.000000
      3          8           0        0.000000    0.121984    0.000000
 ---------------------------------------------------------------------
 Rotational constants (GHZ):    758.9249362    431.2269251    274.9807627

 **********************************************************************

            Population analysis using the SCF density.

 **********************************************************************

 Orbital symmetries:
       Occupied  (A') (A') (A') (A') (A")
       Virtual   (A') (A') (A') (A') (A") (A') (A') (A') (A') (A")
                 (A") (A') (A') (A') (A") (A") (A') (A') (A') (A')
 The electronic state is 1-A'.
 Alpha  occ. eigenvalues --  -18.78535  -0.89413  -0.44854  -0.30798  -0.22432
 Alpha virt. eigenvalues --    0.03616   0.11868   0.70211   0.74439   0.83696
 Alpha virt. eigenvalues --    0.84655   0.96051   1.13203   1.47760   1.47866
 Alpha virt. eigenvalues --    1.58633   2.15956   2.20204   2.35713   2.55696
 Alpha virt. eigenvalues --    2.59638   2.93610   3.20580   3.44200   3.59483
          Condensed to atoms (all electrons):
               1          2          3
     1  H    0.470330  -0.029265   0.269644
     2  H   -0.029265   0.470298   0.269671
     3  O    0.269644   0.269671   8.039271
 Mulliken charges:
               1
     1  H    0.289290
     2  H    0.289296
     3  O   -0.578586
 Sum of Mulliken charges =   0.00000
 Mulliken charges with hydrogens summed into heavy atoms:
               1
     3  O    0.000000
 Electronic spatial extent (au):  <R**2>=             19.3409
 Charge=             -0.00000000000001 electrons
 Dipole moment (field-independent basis, Debye):
    X=             -0.00013841436397    Y=             -1.98493224125007    Z=              0.00000000000000  Tot=              1.98493224607607
 Quadrupole moment (field-independent basis, Debye-Ang):
   XX=             -4.41572138857979   YY=             -5.99332364961786   ZZ=             -7.16082159157953
   XY=             -0.00029264144939   XZ=              0.00000000000000   YZ=              0.00000000000000
 Traceless Quadrupole moment (field-independent basis, Debye-Ang):
   XX=              1.44090082134594   YY=             -0.13670143969213   ZZ=             -1.30419938165380
   XY=             -0.00029264144939   XZ=              0.00000000000000   YZ=              0.00000000000000
 Octapole moment (field-independent basis, Debye-Ang**2):
  XXX=             -0.00029273130493  YYY=             -1.05821046250798  ZZZ=              0.00000000000000  XYY=              0.00016277178268
  XXY=             -1.12033559896501  XXZ=              0.00000000000000  XZZ=             -0.00010346700045  YZZ=             -0.26852875241162
  YYZ=              0.00000000000000  XYZ=              0.00000000000000
 Hexadecapole moment (field-independent basis, Debye-Ang**3):
 XXXX=             -6.49829109965830 YYYY=             -6.48837955752471 ZZZZ=             -5.16613406878380 XXXY=              0.00014757269035
 XXXZ=              0.00000000000000 YYYX=              0.00008855762848 YYYZ=              0.00000000000000 ZZZX=              0.00000000000000
 ZZZY=              0.00000000000000 XXYY=             -1.82941886101715 XXZZ=             -2.18448166522523 YYZZ=             -1.99757817862342
 XXYZ=              0.00000000000000 YYXZ=              0.00000000000000 ZZXY=              0.00011412160240
 N-N= 9.018130489631D+00 E-N=-1.986221427500D+02  KE= 7.580257512976D+01
 Symmetry A'   KE= 7.119849201169D+01
 Symmetry A"   KE= 4.604083118073D+00
 1\1\GINC-ILMFIXE086\FOpt\RBLYP\6-31G(d,p)\H2O1\ALLOUCHE\14-Feb-2018\0\
 \# BLYP/6-31G** Opt Freq\\Gaussian file generated by cchemi\\0,1\H,0.5
 92453945,-0.4368675506,-0.2080117709\H,0.1264321526,0.9367343055,-0.67
 89203402\O,0.5811139024,0.5001342452,0.0666971111\\Version=EM64L-G09Re
 vD.01\State=1-A'\HF=-76.3988845\RMSD=5.638e-10\RMSF=7.570e-05\Dipole=-
 0.2838398,-0.3203034,-0.65322\Quadrupole=-0.6643877,0.8321057,-0.16771
 8,-0.4323444,0.4564783,-0.2698448\PG=CS [SG(H2O1)]\\@


 BUT 'GLORY' DOESN'T MEAN 'A NICE KNOCK DOWN ARGUMENT', ALICE OBJECTED.
 WHEN I USE A WORD, HUMPTY DUMPTY SAID, IN A RATHER SCORNFUL TONE,
 IT MEANS JUST WHAT I CHOOSE IT TO MEAN....
 NEITHER MORE NOR LESS....
 THE QUESTION IS, SAID ALICE,
 WHETHER YOU CAN MAKE WORDS MEAN SO MANY DIFFERENT THINGS...
 THE QUESTION IS, SAID HUMPTY DUMPTY,
 WHICH IS TO BE MASTER....
 THAT IS ALL.....

 ALICE THROUGH THE LOOKING GLASS
 Job cpu time:       0 days  0 hours  0 minutes  6.9 seconds.
 File lengths (MBytes):  RWF=      5 Int=      0 D2E=      0 Chk=      1 Scr=      1
 Normal termination of Gaussian 09 at Wed Feb 14 15:13:21 2018.
 Link1:  Proceeding to internal job step number  2.
 ---------------------------------------------------------------------
 #N Geom=AllCheck Guess=TCheck SCRF=Check GenChk RBLYP/6-31G(d,p) Freq
 ---------------------------------------------------------------------
 1/10=4,29=7,30=1,38=1,40=1/1,3;
 2/12=2,40=1/2;
 3/5=1,6=6,7=101,11=2,14=-4,16=1,25=1,30=1,70=2,71=2,74=402,116=1,140=1/1,2,3;
 4/5=101/1;
 5/5=2,98=1/2;
 8/6=4,10=90,11=11/1;
 11/6=1,8=1,9=11,15=111,16=1/1,2,10;
 10/6=1/2;
 6/7=2,8=2,9=2,10=2,18=1,28=1/1;
 7/8=1,10=1,25=1/1,2,3,16;
 1/10=4,30=1/3;
 99//99;
 Structure from the checkpoint file:  "/tmp/allouche/20270/Gau-30266.chk"
 ---------------------------------
 Gaussian file generated by cchemi
 ---------------------------------
 Charge =  0 Multiplicity = 1
 Redundant internal coordinates found in file.
 H,0,0.592453945,-0.4368675506,-0.2080117709
 H,0,0.1264321526,0.9367343055,-0.6789203402
 O,0,0.5811139024,0.5001342452,0.0666971111
 Recover connectivity data from disk.

 GradGradGradGradGradGradGradGradGradGradGradGradGradGradGradGradGradGrad
 Berny optimization.
 Initialization pass.
                           ----------------------------
                           !    Initial Parameters    !
                           ! (Angstroms and Degrees)  !
 --------------------------                            --------------------------
 ! Name  Definition              Value          Derivative Info.                !
 --------------------------------------------------------------------------------
 ! R1    R(1,3)                  0.9765         calculate D2E/DX2 analytically  !
 ! R2    R(2,3)                  0.9764         calculate D2E/DX2 analytically  !
 ! A1    A(1,3,2)              102.6886         calculate D2E/DX2 analytically  !
 --------------------------------------------------------------------------------
 Trust Radius=3.00D-01 FncErr=1.00D-07 GrdErr=1.00D-07
 Number of steps in this run=      2 maximum allowed number of steps=      2.
 GradGradGradGradGradGradGradGradGradGradGradGradGradGradGradGradGradGrad

                          Input orientation:                          
 ---------------------------------------------------------------------
 Center     Atomic      Atomic             Coordinates (Angstroms)
 Number     Number       Type             X           Y           Z
 ---------------------------------------------------------------------
      1          1           0        0.592454   -0.436868   -0.208012
      2          1           0        0.126432    0.936734   -0.678920
      3          8           0        0.581114    0.500134    0.066697
 ---------------------------------------------------------------------
                    Distance matrix (angstroms):
                    1          2          3
     1  H    0.000000
     2  H    1.525029   0.000000
     3  O    0.976507   0.976371   0.000000
 Stoichiometry    H2O
 Framework group  CS[SG(H2O)]
 Deg. of freedom     3
 Full point group                 CS      NOp   2
 Largest Abelian subgroup         CS      NOp   2
 Largest concise Abelian subgroup C1      NOp   1
                         Standard orientation:                         
 ---------------------------------------------------------------------
 Center     Atomic      Atomic             Coordinates (Angstroms)
 Number     Number       Type             X           Y           Z
 ---------------------------------------------------------------------
      1          1           0        0.762514   -0.488046    0.000000
      2          1           0       -0.762514   -0.487829    0.000000
      3          8           0        0.000000    0.121984    0.000000
 ---------------------------------------------------------------------
 Rotational constants (GHZ):    758.9249362    431.2269251    274.9807627
 Standard basis: 6-31G(d,p) (6D, 7F)
 There are    19 symmetry adapted cartesian basis functions of A'  symmetry.
 There are     6 symmetry adapted cartesian basis functions of A"  symmetry.
 There are    19 symmetry adapted basis functions of A'  symmetry.
 There are     6 symmetry adapted basis functions of A"  symmetry.
    25 basis functions,    42 primitive gaussians,    25 cartesian basis functions
     5 alpha electrons        5 beta electrons
       nuclear repulsion energy         9.0181304896 Hartrees.
 NAtoms=    3 NActive=    3 NUniq=    3 SFac= 1.00D+00 NAtFMM=   60 NAOKFM=F Big=F
 Integral buffers will be    131072 words long.
 Raffenetti 2 integral format.
 Two-electron integral symmetry is turned on.
 One-electron integrals computed using PRISM.
 NBasis=    25 RedAO= T EigKep=  3.19D-02  NBF=    19     6
 NBsUse=    25 1.00D-06 EigRej= -1.00D+00 NBFU=    19     6
 Initial guess from the checkpoint file:  "/tmp/allouche/20270/Gau-30266.chk"
 B after Tr=     0.000000    0.000000    0.000000
         Rot=    1.000000    0.000000    0.000000    0.000000 Ang=   0.00 deg.
 Initial guess orbital symmetries:
       Occupied  (A') (A') (A') (A') (A")
       Virtual   (A') (A') (A') (A') (A") (A') (A') (A') (A') (A")
                 (A") (A') (A') (A') (A") (A") (A') (A') (A') (A')
 Keep J ints in memory in symmetry-blocked form, NReq=934324.
 Requested convergence on RMS density matrix=1.00D-08 within 128 cycles.
 Requested convergence on MAX density matrix=1.00D-06.
 Requested convergence on             energy=1.00D-06.
 No special actions if energy rises.
 SCF Done:  E(RB-LYP) =  -76.3988844797     A.U. after    1 cycles
            NFock=  1  Conv=0.15D-09     -V/T= 2.0079
 Range of M.O.s used for correlation:     1    25
 NBasis=    25 NAE=     5 NBE=     5 NFC=     0 NFV=     0
 NROrb=     25 NOA=     5 NOB=     5 NVA=    20 NVB=    20
 Symmetrizing basis deriv contribution to polar:
 IMax=3 JMax=2 DiffMx= 0.00D+00
 G2DrvN: will do     4 centers at a time, making    1 passes.
 Calling FoFCou, ICntrl=  3507 FMM=F I1Cent=   0 AccDes= 0.00D+00.
 End of G2Drv F.D. properties file   721 does not exist.
 End of G2Drv F.D. properties file   722 does not exist.
 End of G2Drv F.D. properties file   788 does not exist.
          IDoAtm=111
          Differentiating once with respect to electric field.
                with respect to dipole field.
          Differentiating once with respect to nuclear coordinates.
 Keep J ints in memory in symmetry-blocked form, NReq=912949.
          There are    12 degrees of freedom in the 1st order CPHF.  IDoFFX=6 NUNeed=     3.
      9 vectors produced by pass  0 Test12= 8.33D-16 8.33D-09 XBig12= 5.08D+00 1.66D+00.
 AX will form     9 AO Fock derivatives at one time.
      9 vectors produced by pass  1 Test12= 8.33D-16 8.33D-09 XBig12= 8.76D-01 4.64D-01.
      9 vectors produced by pass  2 Test12= 8.33D-16 8.33D-09 XBig12= 3.02D-03 2.19D-02.
      9 vectors produced by pass  3 Test12= 8.33D-16 8.33D-09 XBig12= 8.47D-07 3.22D-04.
      4 vectors produced by pass  4 Test12= 8.33D-16 8.33D-09 XBig12= 1.92D-10 6.00D-06.
      1 vectors produced by pass  5 Test12= 8.33D-16 8.33D-09 XBig12= 8.21D-15 3.83D-08.
 InvSVY:  IOpt=1 It=  1 EMax= 8.88D-16
 Solved reduced A of dimension    41 with     9 vectors.
 Isotropic polarizability for W=    0.000000        5.60 Bohr**3.
 End of Minotr F.D. properties file   721 does not exist.
 End of Minotr F.D. properties file   722 does not exist.
 End of Minotr F.D. properties file   788 does not exist.

 **********************************************************************

            Population analysis using the SCF density.

 **********************************************************************

 Orbital symmetries:
       Occupied  (A') (A') (A') (A') (A")
       Virtual   (A') (A') (A') (A') (A") (A') (A') (A') (A') (A")
                 (A") (A') (A') (A') (A") (A") (A') (A') (A') (A')
 The electronic state is 1-A'.
 Alpha  occ. eigenvalues --  -18.78535  -0.89413  -0.44854  -0.30798  -0.22432
 Alpha virt. eigenvalues --    0.03616   0.11868   0.70211   0.74439   0.83696
 Alpha virt. eigenvalues --    0.84655   0.96051   1.13203   1.47760   1.47866
 Alpha virt. eigenvalues --    1.58633   2.15956   2.20204   2.35713   2.55696
 Alpha virt. eigenvalues --    2.59638   2.93610   3.20580   3.44200   3.59483
          Condensed to atoms (all electrons):
               1          2          3
     1  H    0.470330  -0.029265   0.269644
     2  H   -0.029265   0.470298   0.269671
     3  O    0.269644   0.269671   8.039271
 Mulliken charges:
               1
     1  H    0.289290
     2  H    0.289296
     3  O   -0.578586
 Sum of Mulliken charges =   0.00000
 Mulliken charges with hydrogens summed into heavy atoms:
               1
     3  O    0.000000
 APT charges:
               1
     1  H    0.214518
     2  H    0.214539
     3  O   -0.429057
 Sum of APT charges =   0.00000
 APT charges with hydrogens summed into heavy atoms:
               1
     3  O    0.000000
 Electronic spatial extent (au):  <R**2>=             19.3409
 Charge=              0.00000000000001 electrons
 Dipole moment (field-independent basis, Debye):
    X=             -0.00013839131851    Y=             -1.98493225482531    Z=              0.00000000000000  Tot=              1.98493225964969
 Quadrupole moment (field-independent basis, Debye-Ang):
   XX=             -4.41572139284314   YY=             -5.99332365343392   ZZ=             -7.16082159477379
   XY=             -0.00029265139077   XZ=              0.00000000000000   YZ=              0.00000000000000
 Traceless Quadrupole moment (field-independent basis, Debye-Ang):
   XX=              1.44090082084048   YY=             -0.13670143975031   ZZ=             -1.30419938109017
   XY=             -0.00029265139077   XZ=              0.00000000000000   YZ=              0.00000000000000
 Octapole moment (field-independent basis, Debye-Ang**2):
  XXX=             -0.00029270260710  YYY=             -1.05821046767955  ZZZ=              0.00000000000000  XYY=              0.00016278304127
  XXY=             -1.12033560096882  XXZ=              0.00000000000000  XZZ=             -0.00010346239702  YZZ=             -0.26852875393581
  YYZ=              0.00000000000000  XYZ=              0.00000000000000
 Hexadecapole moment (field-independent basis, Debye-Ang**3):
 XXXX=             -6.49829110856515 YYYY=             -6.48837956191711 ZZZZ=             -5.16613407340619 XXXY=              0.00014756023883
 XXXZ=              0.00000000000000 YYYX=              0.00008854944503 YYYZ=              0.00000000000000 ZZZX=              0.00000000000000
 ZZZY=              0.00000000000000 XXYY=             -1.82941886267647 XXZZ=             -2.18448166743562 YYZZ=             -1.99757818022803
 XXYZ=              0.00000000000000 YYXZ=              0.00000000000000 ZZXY=              0.00011411977176
 N-N= 9.018130489631D+00 E-N=-1.986221427390D+02  KE= 7.580257512329D+01
 Symmetry A'   KE= 7.119849200725D+01
 Symmetry A"   KE= 4.604083116040D+00
  Exact polarizability:   7.885  -0.001   5.894   0.000   0.000   3.022
 Approx polarizability:  11.264  -0.002   8.736   0.000   0.000   3.619
 Calling FoFJK, ICntrl=    100527 FMM=F ISym2X=1 I1Cent= 0 IOpClX= 0 NMat=1 NMatS=1 NMatT=0.
 Full mass-weighted force constant matrix:
 Low frequencies ---  -48.7296  -19.2310   -0.0016   -0.0014    0.0018   39.1930
 Low frequencies --- 1639.5910 3642.9664 3753.9040
 Diagonal vibrational polarizability:
        0.0166133       0.5749004       0.0000000
 Harmonic frequencies (cm**-1), IR intensities (KM/Mole), Raman scattering
 activities (A**4/AMU), depolarization ratios for plane and unpolarized
 incident light, reduced masses (AMU), force constants (mDyne/A),
 and normal coordinates:
                      1                      2                      3
                     A'                     A'                     A'
 Frequencies --   1639.59088439542300              3642.96636686297300              3753.90390044325100
 Red. masses --      1.08239201544475                 1.04543366950507                 1.08004356113339
 Frc consts  --      1.71437464784260                 8.17442045333427                 8.96721822467478
 IR Inten    --     57.42890311290456                 0.00048937882135                 8.69888569944537
  Atom  AN      X      Y      Z        X      Y      Z        X      Y      Z
     1   1     0.429185481704   0.559682057038   0.000000000000    -0.587967747560   0.400980547481   0.000000000000     0.546123788841  -0.437419169870   0.000000000000
     2   1    -0.429209631871   0.559785222234   0.000000000000     0.579450119934   0.394000869147   0.000000000000     0.555555453245   0.443793532795   0.000000000000
     3   8     0.000001521680  -0.070536616015   0.000000000000     0.000536687977  -0.050091056668   0.000000000000    -0.069415807956  -0.000401642816   0.000000000000

 -------------------
 - Thermochemistry -
 -------------------
 Temperature   298.150 Kelvin.  Pressure   1.00000 Atm.
 Atom     1 has atomic number  1 and mass   1.00783
 Atom     2 has atomic number  1 and mass   1.00783
 Atom     3 has atomic number  8 and mass  15.99491
 Molecular mass:    18.01056 amu.
 Principal axes and moments of inertia in atomic units:
                           1         2         3
     Eigenvalues --     2.37802   4.18513   6.56315
           X            1.00000   0.00033   0.00000
           Y           -0.00033   1.00000   0.00000
           Z            0.00000   0.00000   1.00000
 This molecule is an asymmetric top.
 Rotational symmetry number  1.
 Rotational temperatures (Kelvin)     36.42261    20.69560    13.19698
 Rotational constants (GHZ):         758.92494   431.22693   274.98076
 Zero-point vibrational energy      54050.0 (Joules/Mol)
                                   12.91827 (Kcal/Mol)
 Vibrational temperatures:   2359.00  5241.41  5401.02
          (Kelvin)
 
 Zero-point correction=                           0.020587 (Hartree/Particle)
 Thermal correction to Energy=                    0.023422
 Thermal correction to Enthalpy=                  0.024366
 Thermal correction to Gibbs Free Energy=         0.002239
 Sum of electronic and zero-point Energies=            -76.378298
 Sum of electronic and thermal Energies=               -76.375463
 Sum of electronic and thermal Enthalpies=             -76.374518
 Sum of electronic and thermal Free Energies=          -76.396645
 
                     E (Thermal)             CV                S
                      KCal/Mol        Cal/Mol-Kelvin    Cal/Mol-Kelvin
 Total                   14.697              6.007             46.570
 Electronic               0.000              0.000              0.000
 Translational            0.889              2.981             34.608
 Rotational               0.889              2.981             11.955
 Vibrational             12.920              0.046              0.006
                       Q            Log10(Q)             Ln(Q)
 Total Bot       0.933522D-01         -1.029876         -2.371376
 Total V=0       0.274961D+09          8.439271         19.432139
 Vib (Bot)       0.339635D-09         -9.468987        -21.803148
 Vib (V=0)       0.100037D+01          0.000159          0.000366
 Electronic      0.100000D+01          0.000000          0.000000
 Translational   0.300432D+07          6.477746         14.915562
 Rotational      0.914882D+02          1.961365          4.516211
 ***** Axes restored to original set *****
 -------------------------------------------------------------------
 Center     Atomic                   Forces (Hartrees/Bohr)
 Number     Number              X              Y              Z
 -------------------------------------------------------------------
      1        1          -0.000001669    0.000154048    0.000045544
      2        1           0.000015132   -0.000014152    0.000024934
      3        8          -0.000013463   -0.000139896   -0.000070478
 -------------------------------------------------------------------
 Cartesian Forces:  Max     0.000154048 RMS     0.000075703
 FormGI is forming the generalized inverse of G from B-inverse, IUseBI=4.

 GradGradGradGradGradGradGradGradGradGradGradGradGradGradGradGradGradGrad
 Berny optimization.
 Internal  Forces:  Max     0.000160642 RMS     0.000094618
 Search for a local minimum.
 Step number   1 out of a maximum of    2
 All quantities printed in internal units (Hartrees-Bohrs-Radians)
 Second derivative matrix not updated -- analytic derivatives used.
 The second derivative matrix:
                          R1        R2        A1
           R1           0.49123
           R2          -0.00756   0.49170
           A1           0.03257   0.03256   0.16644
 ITU=  0
     Eigenvalues ---    0.15989   0.49044   0.49903
 Angle between quadratic step and forces=  13.73 degrees.
 Linear search not attempted -- first point.
 Iteration  1 RMS(Cart)=  0.00014562 RMS(Int)=  0.00000000
 Iteration  2 RMS(Cart)=  0.00000000 RMS(Int)=  0.00000000
 ClnCor:  largest displacement from symmetrization is 2.13D-15 for atom     1.
 Variable       Old X    -DE/DX   Delta X   Delta X   Delta X     New X
                                 (Linear)    (Quad)   (Total)
    R1        1.84533  -0.00016   0.00000  -0.00033  -0.00033   1.84500
    R2        1.84507  -0.00003   0.00000  -0.00008  -0.00008   1.84500
    A1        1.79225   0.00000   0.00000   0.00008   0.00008   1.79234
         Item               Value     Threshold  Converged?
 Maximum Force            0.000161     0.000450     YES
 RMS     Force            0.000095     0.000300     YES
 Maximum Displacement     0.000182     0.001800     YES
 RMS     Displacement     0.000146     0.001200     YES
 Predicted change in Energy=-2.808772D-08
 Optimization completed.
    -- Stationary point found.
                           ----------------------------
                           !   Optimized Parameters   !
                           ! (Angstroms and Degrees)  !
 --------------------------                            --------------------------
 ! Name  Definition              Value          Derivative Info.                !
 --------------------------------------------------------------------------------
 ! R1    R(1,3)                  0.9765         -DE/DX =   -0.0002              !
 ! R2    R(2,3)                  0.9764         -DE/DX =    0.0                 !
 ! A1    A(1,3,2)              102.6886         -DE/DX =    0.0                 !
 --------------------------------------------------------------------------------
 GradGradGradGradGradGradGradGradGradGradGradGradGradGradGradGradGradGrad

 1\1\GINC-ILMFIXE086\Freq\RBLYP\6-31G(d,p)\H2O1\ALLOUCHE\14-Feb-2018\0\
 \#N Geom=AllCheck Guess=TCheck SCRF=Check GenChk RBLYP/6-31G(d,p) Freq
 \\Gaussian file generated by cchemi\\0,1\H,0.592453945,-0.4368675506,-
 0.2080117709\H,0.1264321526,0.9367343055,-0.6789203402\O,0.5811139024,
 0.5001342452,0.0666971111\\Version=EM64L-G09RevD.01\State=1-A'\HF=-76.
 3988845\RMSD=1.473e-10\RMSF=7.570e-05\ZeroPoint=0.0205866\Thermal=0.02
 34219\Dipole=-0.2838398,-0.3203034,-0.65322\DipoleDeriv=0.3218465,-0.0
 160246,-0.0379464,-0.0017386,0.0834006,-0.0842523,-0.0334219,-0.112023
 9,0.2383058,0.2700462,0.0453837,-0.1192701,0.0311334,0.255794,0.034236
 2,-0.1237833,0.0619385,0.1177779,-0.5918927,-0.0293591,0.1572165,-0.02
 93948,-0.3391946,0.0500161,0.1572052,0.0500854,-0.3560837\Polar=3.8550
 669,-0.9104061,7.4509713,1.3319744,-0.3669921,5.4946669\PG=CS [SG(H2O1
 )]\NImag=0\\0.01128359,-0.01917694,0.46338669,0.01589133,0.10948244,0.
 06555080,-0.00168479,-0.00407910,-0.00459167,0.10547328,0.02438722,-0.
 02410713,0.03976933,-0.10490159,0.15034724,0.00442377,-0.01556854,0.00
 368173,0.17197938,-0.15628370,0.28474345,-0.00959881,0.02325604,-0.011
 29966,-0.10378849,0.08051437,-0.17640315,0.11338730,-0.00521028,-0.439
 27956,-0.14925177,0.10898068,-0.12624011,0.17185225,-0.10377040,0.5655
 1968,-0.02031510,-0.09391390,-0.06923253,-0.16738771,0.11651437,-0.288
 42518,0.18770281,-0.02260048,0.35765771\\0.00000167,-0.00015405,-0.000
 04554,-0.00001513,0.00001415,-0.00002493,0.00001346,0.00013990,0.00007
 048\\\@


 EXPERIENCE IS THE FRUIT OF THE TREE OF ERRORS.
 Job cpu time:       0 days  0 hours  0 minutes  3.6 seconds.
 File lengths (MBytes):  RWF=      5 Int=      0 D2E=      0 Chk=      1 Scr=      1
 Normal termination of Gaussian 09 at Wed Feb 14 15:13:25 2018.
