 Entering Gaussian System, Link 0=/opt/local/Softwares/G09DSrc-Corr5/g09/g09
 Initial command:
 /opt/local/Softwares/G09DSrc-Corr5/g09/l1.exe "/tmp/allouche/14916/Gau-2839.inp" -scrdir="/tmp/allouche/14916/"
 Entering Link 1 = /opt/local/Softwares/G09DSrc-Corr5/g09/l1.exe PID=      2841.
  
 Copyright (c) 1988,1990,1992,1993,1995,1998,2003,2009,2013,
            Gaussian, Inc.  All Rights Reserved.
  
 This is part of the Gaussian(R) 09 program.  It is based on
 the Gaussian(R) 03 system (copyright 2003, Gaussian, Inc.),
 the Gaussian(R) 98 system (copyright 1998, Gaussian, Inc.),
 the Gaussian(R) 94 system (copyright 1995, Gaussian, Inc.),
 the Gaussian 92(TM) system (copyright 1992, Gaussian, Inc.),
 the Gaussian 90(TM) system (copyright 1990, Gaussian, Inc.),
 the Gaussian 88(TM) system (copyright 1988, Gaussian, Inc.),
 the Gaussian 86(TM) system (copyright 1986, Carnegie Mellon
 University), and the Gaussian 82(TM) system (copyright 1983,
 Carnegie Mellon University). Gaussian is a federally registered
 trademark of Gaussian, Inc.
  
 This software contains proprietary and confidential information,
 including trade secrets, belonging to Gaussian, Inc.
  
 This software is provided under written license and may be
 used, copied, transmitted, or stored only in accord with that
 written license.
  
 The following legend is applicable only to US Government
 contracts under FAR:
  
                    RESTRICTED RIGHTS LEGEND
  
 Use, reproduction and disclosure by the US Government is
 subject to restrictions as set forth in subparagraphs (a)
 and (c) of the Commercial Computer Software - Restricted
 Rights clause in FAR 52.227-19.
  
 Gaussian, Inc.
 340 Quinnipiac St., Bldg. 40, Wallingford CT 06492
  
  
 ---------------------------------------------------------------
 Warning -- This program may not be used in any manner that
 competes with the business of Gaussian, Inc. or will provide
 assistance to any competitor of Gaussian, Inc.  The licensee
 of this program is prohibited from giving any competitor of
 Gaussian, Inc. access to this program.  By using this program,
 the user acknowledges that Gaussian, Inc. is engaged in the
 business of creating and licensing software in the field of
 computational chemistry and represents and warrants to the
 licensee that it is not a competitor of Gaussian, Inc. and that
 it will not use this program in any manner prohibited above.
 ---------------------------------------------------------------
  

 Cite this work as:
 Gaussian 09, Revision D.01,
 M. J. Frisch, G. W. Trucks, H. B. Schlegel, G. E. Scuseria, 
 M. A. Robb, J. R. Cheeseman, G. Scalmani, V. Barone, B. Mennucci, 
 G. A. Petersson, H. Nakatsuji, M. Caricato, X. Li, H. P. Hratchian, 
 A. F. Izmaylov, J. Bloino, G. Zheng, J. L. Sonnenberg, M. Hada, 
 M. Ehara, K. Toyota, R. Fukuda, J. Hasegawa, M. Ishida, T. Nakajima, 
 Y. Honda, O. Kitao, H. Nakai, T. Vreven, J. A. Montgomery, Jr., 
 J. E. Peralta, F. Ogliaro, M. Bearpark, J. J. Heyd, E. Brothers, 
 K. N. Kudin, V. N. Staroverov, T. Keith, R. Kobayashi, J. Normand, 
 K. Raghavachari, A. Rendell, J. C. Burant, S. S. Iyengar, J. Tomasi, 
 M. Cossi, N. Rega, J. M. Millam, M. Klene, J. E. Knox, J. B. Cross, 
 V. Bakken, C. Adamo, J. Jaramillo, R. Gomperts, R. E. Stratmann, 
 O. Yazyev, A. J. Austin, R. Cammi, C. Pomelli, J. W. Ochterski, 
 R. L. Martin, K. Morokuma, V. G. Zakrzewski, G. A. Voth, 
 P. Salvador, J. J. Dannenberg, S. Dapprich, A. D. Daniels, 
 O. Farkas, J. B. Foresman, J. V. Ortiz, J. Cioslowski, 
 and D. J. Fox, Gaussian, Inc., Wallingford CT, 2013.
 
 ******************************************
 Gaussian 09:  EM64L-G09RevD.01 24-Apr-2013
                14-Feb-2018 
 ******************************************
 -----------------------
 # BLYP/6-31G** Opt Freq
 -----------------------
 1/14=-1,18=20,19=15,26=3,38=1/1,3;
 2/9=110,12=2,17=6,18=5,40=1/2;
 3/5=1,6=6,7=101,11=2,16=1,25=1,30=1,71=1,74=402/1,2,3;
 4//1;
 5/5=2,38=5/2;
 6/7=2,8=2,9=2,10=2,28=1/1;
 7//1,2,3,16;
 1/14=-1,18=20,19=15,26=3/3(2);
 2/9=110/2;
 99//99;
 2/9=110/2;
 3/5=1,6=6,7=101,11=2,16=1,25=1,30=1,71=1,74=402/1,2,3;
 4/5=5,16=3,69=1/1;
 5/5=2,38=5/2;
 7//1,2,3,16;
 1/14=-1,18=20,19=15,26=3/3(-5);
 2/9=110/2;
 6/7=2,8=2,9=2,10=2,19=2,28=1/1;
 99/9=1/99;
 ---------------------------------
 Gaussian file generated by cchemi
 ---------------------------------
 Symbolic Z-matrix:
 Charge =  0 Multiplicity = 1
 H                    0     0.6      -0.44454  -0.19577 
 H                    0     0.1       0.97655  -0.71769 
 S                    0     0.6       0.46799   0.09323 
 

 GradGradGradGradGradGradGradGradGradGradGradGradGradGradGradGradGradGrad
 Berny optimization.
 Initialization pass.
                           ----------------------------
                           !    Initial Parameters    !
                           ! (Angstroms and Degrees)  !
 --------------------------                            --------------------------
 ! Name  Definition              Value          Derivative Info.                !
 --------------------------------------------------------------------------------
 ! R1    R(1,3)                  0.9572         estimate D2E/DX2                !
 ! R2    R(2,3)                  1.0799         estimate D2E/DX2                !
 ! A1    A(1,3,2)              102.8398         estimate D2E/DX2                !
 --------------------------------------------------------------------------------
 Trust Radius=3.00D-01 FncErr=1.00D-07 GrdErr=1.00D-06
 Number of steps in this run=     20 maximum allowed number of steps=    100.
 GradGradGradGradGradGradGradGradGradGradGradGradGradGradGradGradGradGrad

                          Input orientation:                          
 ---------------------------------------------------------------------
 Center     Atomic      Atomic             Coordinates (Angstroms)
 Number     Number       Type             X           Y           Z
 ---------------------------------------------------------------------
      1          1           0        0.600000   -0.444539   -0.195772
      2          1           0        0.100000    0.976550   -0.717694
      3         16           0        0.600000    0.467990    0.093231
 ---------------------------------------------------------------------
                    Distance matrix (angstroms):
                    1          2          3
     1  H    0.000000
     2  H    1.594333   0.000000
     3  S    0.957200   1.079923   0.000000
 Stoichiometry    H2S
 Framework group  CS[SG(H2S)]
 Deg. of freedom     3
 Full point group                 CS      NOp   2
 Largest Abelian subgroup         CS      NOp   2
 Largest concise Abelian subgroup C1      NOp   1
                         Standard orientation:                         
 ---------------------------------------------------------------------
 Center     Atomic      Atomic             Coordinates (Angstroms)
 Number     Number       Type             X           Y           Z
 ---------------------------------------------------------------------
      1          1           0        0.791105   -0.468097    0.000000
      2          1           0       -0.791105   -0.664332    0.000000
      3         16           0        0.000000    0.070777    0.000000
 ---------------------------------------------------------------------
 Rotational constants (GHZ):    681.4017119    386.2039676    246.4955458
 Standard basis: 6-31G(d,p) (6D, 7F)
 There are    22 symmetry adapted cartesian basis functions of A'  symmetry.
 There are     7 symmetry adapted cartesian basis functions of A"  symmetry.
 There are    22 symmetry adapted basis functions of A'  symmetry.
 There are     7 symmetry adapted basis functions of A"  symmetry.
    29 basis functions,    66 primitive gaussians,    29 cartesian basis functions
     9 alpha electrons        9 beta electrons
       nuclear repulsion energy        17.0175552476 Hartrees.
 NAtoms=    3 NActive=    3 NUniq=    3 SFac= 1.00D+00 NAtFMM=   60 NAOKFM=F Big=F
 Integral buffers will be    131072 words long.
 Raffenetti 2 integral format.
 Two-electron integral symmetry is turned on.
 One-electron integrals computed using PRISM.
 NBasis=    29 RedAO= T EigKep=  2.00D-02  NBF=    22     7
 NBsUse=    29 1.00D-06 EigRej= -1.00D+00 NBFU=    22     7
 ExpMin= 1.17D-01 ExpMax= 2.19D+04 ExpMxC= 3.30D+03 IAcc=1 IRadAn=         1 AccDes= 0.00D+00
 Harris functional with IExCor=  402 and IRadAn=       1 diagonalized for initial guess.
 HarFok:  IExCor=  402 AccDes= 0.00D+00 IRadAn=         1 IDoV= 1 UseB2=F ITyADJ=14
 ICtDFT=  3500011 ScaDFX=  1.000000  1.000000  1.000000  1.000000
 FoFCou: FMM=F IPFlag=           0 FMFlag=      100000 FMFlg1=           0
         NFxFlg=           0 DoJE=T BraDBF=F KetDBF=T FulRan=T
         wScrn=  0.000000 ICntrl=     500 IOpCl=  0 I1Cent=   200000004 NGrid=           0
         NMat0=    1 NMatS0=      1 NMatT0=    0 NMatD0=    1 NMtDS0=    0 NMtDT0=    0
 Petite list used in FoFCou.
 Initial guess orbital symmetries:
       Occupied  (A') (A') (A') (A') (A") (A') (A') (A') (A")
       Virtual   (A') (A') (A') (A') (A') (A") (A') (A") (A') (A")
                 (A') (A') (A') (A') (A") (A") (A') (A') (A') (A')
 The electronic state of the initial guess is 1-A'.
 Keep J ints in memory in symmetry-blocked form, NReq=977399.
 Requested convergence on RMS density matrix=1.00D-08 within 128 cycles.
 Requested convergence on MAX density matrix=1.00D-06.
 Requested convergence on             energy=1.00D-06.
 No special actions if energy rises.
 Integral accuracy reduced to 1.0D-05 until final iterations.
 Initial convergence to 1.0D-05 achieved.  Increase integral accuracy.
 SCF Done:  E(RB-LYP) =  -399.142996485     A.U. after   12 cycles
            NFock= 12  Conv=0.17D-08     -V/T= 1.9994

 **********************************************************************

            Population analysis using the SCF density.

 **********************************************************************

 Orbital symmetries:
       Occupied  (A') (A') (A') (A') (A") (A') (A') (A') (A")
       Virtual   (A') (A') (A') (A') (A') (A") (A') (A') (A") (A")
                 (A') (A') (A') (A') (A") (A") (A') (A') (A') (A')
 The electronic state is 1-A'.
 Alpha  occ. eigenvalues --  -88.08978  -7.66545  -5.69590  -5.68880  -5.68150
 Alpha  occ. eigenvalues --   -0.75766  -0.48656  -0.30549  -0.22454
 Alpha virt. eigenvalues --    0.06726   0.13606   0.19684   0.26680   0.32855
 Alpha virt. eigenvalues --    0.33358   0.62860   0.64504   0.65290   0.68981
 Alpha virt. eigenvalues --    0.76243   1.29975   1.67891   1.92832   2.11949
 Alpha virt. eigenvalues --    2.25631   2.47888   3.12064   3.36335   3.84842
          Condensed to atoms (all electrons):
               1          2          3
     1  H    0.655023  -0.033719   0.345396
     2  H   -0.033719   0.608013   0.349916
     3  S    0.345396   0.349916  15.413777
 Mulliken charges:
               1
     1  H    0.033299
     2  H    0.075790
     3  S   -0.109089
 Sum of Mulliken charges =   0.00000
 Mulliken charges with hydrogens summed into heavy atoms:
               1
     3  S    0.000000
 Electronic spatial extent (au):  <R**2>=             37.5555
 Charge=             -0.00000000000002 electrons
 Dipole moment (field-independent basis, Debye):
    X=              0.10802454325872    Y=             -1.56465616660567    Z=              0.00000000000000  Tot=              1.56838076424171
 Quadrupole moment (field-independent basis, Debye-Ang):
   XX=            -11.65761087043306   YY=            -13.63459803045357   ZZ=            -15.65175805816858
   XY=              0.24549716525746   XZ=              0.00000000000000   YZ=              0.00000000000000
 Traceless Quadrupole moment (field-independent basis, Debye-Ang):
   XX=              1.99037811591868   YY=              0.01339095589817   ZZ=             -2.00376907181685
   XY=              0.24549716525746   XZ=              0.00000000000000   YZ=              0.00000000000000
 Octapole moment (field-independent basis, Debye-Ang**2):
  XXX=              0.31704477821132  YYY=             -2.79991752173965  ZZZ=              0.00000000000000  XYY=              0.06778731100613
  XXY=             -0.95429613094080  XXZ=              0.00000000000000  XZZ=              0.15641085905778  YZZ=             -1.05244746740792
  YYZ=              0.00000000000000  XYZ=              0.00000000000000
 Hexadecapole moment (field-independent basis, Debye-Ang**3):
 XXXX=            -16.01804919894261 YYYY=            -19.39907095762587 ZZZZ=            -21.37895963826360 XXXY=             -0.10370219978657
 XXXZ=              0.00000000000000 YYYX=             -0.08444055757438 YYYZ=              0.00000000000000 ZZZX=              0.00000000000000
 ZZZY=              0.00000000000000 XXYY=             -5.66263047713674 XXZZ=             -6.38064001183586 YYZZ=             -6.85587303885012
 XXYZ=              0.00000000000000 YYXZ=              0.00000000000000 ZZXY=             -0.08084816189054
 N-N= 1.701755524761D+01 E-N=-9.835304938379D+02  KE= 3.993656776013D+02
 Symmetry A'   KE= 3.608200110393D+02
 Symmetry A"   KE= 3.854566656199D+01
 Calling FoFJK, ICntrl=      2527 FMM=F ISym2X=1 I1Cent= 0 IOpClX= 0 NMat=1 NMatS=1 NMatT=0.
 ***** Axes restored to original set *****
 -------------------------------------------------------------------
 Center     Atomic                   Forces (Hartrees/Bohr)
 Number     Number              X              Y              Z
 -------------------------------------------------------------------
      1        1          -0.005160450   -0.572226450   -0.191259092
      2        1          -0.133881530    0.126768510   -0.220114397
      3       16           0.139041979    0.445457941    0.411373489
 -------------------------------------------------------------------
 Cartesian Forces:  Max     0.572226450 RMS     0.304318591

 GradGradGradGradGradGradGradGradGradGradGradGradGradGradGradGradGradGrad
 Berny optimization.
 FormGI is forming the generalized inverse of G from B-inverse, IUseBI=4.
 Internal  Forces:  Max     0.603264228 RMS     0.385861658
 Search for a local minimum.
 Step number   1 out of a maximum of   20
 All quantities printed in internal units (Hartrees-Bohrs-Radians)
 Mixed Optimization -- RFO/linear search
 Second derivative matrix not updated -- first step.
 The second derivative matrix:
                          R1        R2        A1
           R1           1.14357
           R2           0.00000   0.65871
           A1           0.00000   0.00000   0.16000
 ITU=  0
     Eigenvalues ---    0.16000   0.65871   1.14357
 RFO step:  Lambda=-3.30838893D-01 EMin= 1.60000000D-01
 Linear search not attempted -- first point.
 Maximum step size (   0.300) exceeded in Quadratic search.
    -- Step size scaled by   0.596
 Iteration  1 RMS(Cart)=  0.12469765 RMS(Int)=  0.02540534
 Iteration  2 RMS(Cart)=  0.01895016 RMS(Int)=  0.00005117
 Iteration  3 RMS(Cart)=  0.00005046 RMS(Int)=  0.00000000
 Iteration  4 RMS(Cart)=  0.00000000 RMS(Int)=  0.00000000
 ClnCor:  largest displacement from symmetrization is 1.39D-15 for atom     1.
 Variable       Old X    -DE/DX   Delta X   Delta X   Delta X     New X
                                 (Linear)    (Quad)   (Total)
    R1        1.80885   0.60326   0.00000   0.24398   0.24398   2.05283
    R2        2.04076   0.28697   0.00000   0.17293   0.17293   2.21369
    A1        1.79489  -0.01964   0.00000  -0.02387  -0.02387   1.77103
         Item               Value     Threshold  Converged?
 Maximum Force            0.603264     0.000450     NO 
 RMS     Force            0.385862     0.000300     NO 
 Maximum Displacement     0.167664     0.001800     NO 
 RMS     Displacement     0.140392     0.001200     NO 
 Predicted change in Energy=-1.533481D-01
 GradGradGradGradGradGradGradGradGradGradGradGradGradGradGradGradGradGrad

                          Input orientation:                          
 ---------------------------------------------------------------------
 Center     Atomic      Atomic             Coordinates (Angstroms)
 Number     Number       Type             X           Y           Z
 ---------------------------------------------------------------------
      1          1           0        0.613872   -0.533263   -0.196905
      2          1           0        0.070655    1.031816   -0.757237
      3         16           0        0.615473    0.501448    0.133907
 ---------------------------------------------------------------------
                    Distance matrix (angstroms):
                    1          2          3
     1  H    0.000000
     2  H    1.748865   0.000000
     3  S    1.086308   1.171433   0.000000
 Stoichiometry    H2S
 Framework group  CS[SG(H2S)]
 Deg. of freedom     3
 Full point group                 CS      NOp   2
 Largest Abelian subgroup         CS      NOp   2
 Largest concise Abelian subgroup C1      NOp   1
                         Standard orientation:                         
 ---------------------------------------------------------------------
 Center     Atomic      Atomic             Coordinates (Angstroms)
 Number     Number       Type             X           Y           Z
 ---------------------------------------------------------------------
      1          1           0        0.871848   -0.568565    0.000000
      2          1           0       -0.871848   -0.702923    0.000000
      3         16           0        0.000000    0.079468    0.000000
 ---------------------------------------------------------------------
 Rotational constants (GHZ):    529.2658843    324.7358835    201.2544131
 Standard basis: 6-31G(d,p) (6D, 7F)
 There are    22 symmetry adapted cartesian basis functions of A'  symmetry.
 There are     7 symmetry adapted cartesian basis functions of A"  symmetry.
 There are    22 symmetry adapted basis functions of A'  symmetry.
 There are     7 symmetry adapted basis functions of A"  symmetry.
    29 basis functions,    66 primitive gaussians,    29 cartesian basis functions
     9 alpha electrons        9 beta electrons
       nuclear repulsion energy        15.3244804334 Hartrees.
 NAtoms=    3 NActive=    3 NUniq=    3 SFac= 1.00D+00 NAtFMM=   60 NAOKFM=F Big=F
 Integral buffers will be    131072 words long.
 Raffenetti 2 integral format.
 Two-electron integral symmetry is turned on.
 One-electron integrals computed using PRISM.
 NBasis=    29 RedAO= T EigKep=  2.06D-02  NBF=    22     7
 NBsUse=    29 1.00D-06 EigRej= -1.00D+00 NBFU=    22     7
 Initial guess from the checkpoint file:  "/tmp/allouche/14916/Gau-2841.chk"
 B after Tr=     0.000000    0.000000    0.000000
         Rot=    0.999892    0.000000    0.000000    0.014705 Ang=   1.69 deg.
 Initial guess orbital symmetries:
       Occupied  (A') (A') (A') (A') (A") (A') (A') (A') (A")
       Virtual   (A') (A') (A') (A') (A') (A') (A') (A') (A') (A')
                 (A') (A') (A') (A') (A') (A") (A") (A") (A") (A")
 ExpMin= 1.17D-01 ExpMax= 2.19D+04 ExpMxC= 3.30D+03 IAcc=1 IRadAn=         1 AccDes= 0.00D+00
 Harris functional with IExCor=  402 and IRadAn=       1 diagonalized for initial guess.
 HarFok:  IExCor=  402 AccDes= 0.00D+00 IRadAn=         1 IDoV= 1 UseB2=F ITyADJ=14
 ICtDFT=  3500011 ScaDFX=  1.000000  1.000000  1.000000  1.000000
 FoFCou: FMM=F IPFlag=           0 FMFlag=      100000 FMFlg1=           0
         NFxFlg=           0 DoJE=T BraDBF=F KetDBF=T FulRan=T
         wScrn=  0.000000 ICntrl=     500 IOpCl=  0 I1Cent=   200000004 NGrid=           0
         NMat0=    1 NMatS0=      1 NMatT0=    0 NMatD0=    1 NMtDS0=    0 NMtDT0=    0
 Petite list used in FoFCou.
 Keep J ints in memory in symmetry-blocked form, NReq=977399.
 Requested convergence on RMS density matrix=1.00D-08 within 128 cycles.
 Requested convergence on MAX density matrix=1.00D-06.
 Requested convergence on             energy=1.00D-06.
 No special actions if energy rises.
 Integral accuracy reduced to 1.0D-05 until final iterations.
 Initial convergence to 1.0D-05 achieved.  Increase integral accuracy.
 SCF Done:  E(RB-LYP) =  -399.283305607     A.U. after   11 cycles
            NFock= 11  Conv=0.94D-08     -V/T= 2.0014
 Calling FoFJK, ICntrl=      2527 FMM=F ISym2X=1 I1Cent= 0 IOpClX= 0 NMat=1 NMatS=1 NMatT=0.
 ***** Axes restored to original set *****
 -------------------------------------------------------------------
 Center     Atomic                   Forces (Hartrees/Bohr)
 Number     Number              X              Y              Z
 -------------------------------------------------------------------
      1        1          -0.005229143   -0.260305284   -0.092605464
      2        1          -0.069133431    0.058102039   -0.115992600
      3       16           0.074362574    0.202203245    0.208598064
 -------------------------------------------------------------------
 Cartesian Forces:  Max     0.260305284 RMS     0.144491682

 GradGradGradGradGradGradGradGradGradGradGradGradGradGradGradGradGradGrad
 Berny optimization.
 Using GEDIIS/GDIIS optimizer.
 FormGI is forming the generalized inverse of G from B-inverse, IUseBI=4.
 Internal  Forces:  Max     0.276157887 RMS     0.180939444
 Search for a local minimum.
 Step number   2 out of a maximum of   20
 All quantities printed in internal units (Hartrees-Bohrs-Radians)
 Mixed Optimization -- RFO/linear search
 Update second derivatives using D2CorX and points    1    2
 DE= -1.40D-01 DEPred=-1.53D-01 R= 9.15D-01
 TightC=F SS=  1.41D+00  RLast= 3.00D-01 DXNew= 5.0454D-01 9.0000D-01
 Trust test= 9.15D-01 RLast= 3.00D-01 DXMaxT set to 5.05D-01
 The second derivative matrix:
                          R1        R2        A1
           R1           1.28604
           R2           0.07934   0.70019
           A1           0.01601   0.00661   0.15985
 ITU=  1  0
 Use linear search instead of GDIIS.
 Linear search step of   0.600 exceeds DXMaxT=   0.505 but not scaled.
 Quartic linear search produced a step of  2.00000.
 Iteration  1 RMS(Cart)=  0.12701493 RMS(Int)=  0.18603655
 Iteration  2 RMS(Cart)=  0.11884081 RMS(Int)=  0.05055314
 Iteration  3 RMS(Cart)=  0.03867951 RMS(Int)=  0.00016906
 Iteration  4 RMS(Cart)=  0.00021667 RMS(Int)=  0.00000002
 Iteration  5 RMS(Cart)=  0.00000002 RMS(Int)=  0.00000000
 ClnCor:  largest displacement from symmetrization is 1.43D-15 for atom     2.
 Variable       Old X    -DE/DX   Delta X   Delta X   Delta X     New X
                                 (Linear)    (Quad)   (Total)
    R1        2.05283   0.27616   0.48796   0.00000   0.48796   2.54078
    R2        2.21369   0.14669   0.34586   0.00000   0.34586   2.55954
    A1        1.77103  -0.02088  -0.04773   0.00000  -0.04773   1.72330
         Item               Value     Threshold  Converged?
 Maximum Force            0.276158     0.000450     NO 
 RMS     Force            0.180939     0.000300     NO 
 Maximum Displacement     0.328770     0.001800     NO 
 RMS     Displacement     0.276676     0.001200     NO 
 Predicted change in Energy=-2.158923D-02
 GradGradGradGradGradGradGradGradGradGradGradGradGradGradGradGradGradGrad

                          Input orientation:                          
 ---------------------------------------------------------------------
 Center     Atomic      Atomic             Coordinates (Angstroms)
 Number     Number       Type             X           Y           Z
 ---------------------------------------------------------------------
      1          1           0        0.639299   -0.707240   -0.202575
      2          1           0        0.013146    1.137430   -0.835584
      3         16           0        0.647555    0.569811    0.217923
 ---------------------------------------------------------------------
                    Distance matrix (angstroms):
                    1          2          3
     1  H    0.000000
     2  H    2.048311   0.000000
     3  S    1.344525   1.354453   0.000000
 Stoichiometry    H2S
 Framework group  CS[SG(H2S)]
 Deg. of freedom     3
 Full point group                 CS      NOp   2
 Largest Abelian subgroup         CS      NOp   2
 Largest concise Abelian subgroup C1      NOp   1
                         Standard orientation:                         
 ---------------------------------------------------------------------
 Center     Atomic      Atomic             Coordinates (Angstroms)
 Number     Number       Type             X           Y           Z
 ---------------------------------------------------------------------
      1          1           0        1.024127   -0.773513    0.000000
      2          1           0       -1.024127   -0.788759    0.000000
      3         16           0        0.000000    0.097642    0.000000
 ---------------------------------------------------------------------
 Rotational constants (GHZ):    345.2019174    239.0100223    141.2273738
 Standard basis: 6-31G(d,p) (6D, 7F)
 There are    22 symmetry adapted cartesian basis functions of A'  symmetry.
 There are     7 symmetry adapted cartesian basis functions of A"  symmetry.
 There are    22 symmetry adapted basis functions of A'  symmetry.
 There are     7 symmetry adapted basis functions of A"  symmetry.
    29 basis functions,    66 primitive gaussians,    29 cartesian basis functions
     9 alpha electrons        9 beta electrons
       nuclear repulsion energy        12.8067273333 Hartrees.
 NAtoms=    3 NActive=    3 NUniq=    3 SFac= 1.00D+00 NAtFMM=   60 NAOKFM=F Big=F
 Integral buffers will be    131072 words long.
 Raffenetti 2 integral format.
 Two-electron integral symmetry is turned on.
 One-electron integrals computed using PRISM.
 NBasis=    29 RedAO= T EigKep=  2.07D-02  NBF=    22     7
 NBsUse=    29 1.00D-06 EigRej= -1.00D+00 NBFU=    22     7
 Initial guess from the checkpoint file:  "/tmp/allouche/14916/Gau-2841.chk"
 B after Tr=     0.000000    0.000000    0.000000
         Rot=    0.999771    0.000000    0.000000    0.021387 Ang=   2.45 deg.
 Initial guess orbital symmetries:
       Occupied  (A') (A') (A') (A') (A") (A') (A') (A') (A")
       Virtual   (A') (A') (A') (A') (A') (A') (A') (A') (A') (A')
                 (A') (A') (A') (A') (A') (A") (A") (A") (A") (A")
 ExpMin= 1.17D-01 ExpMax= 2.19D+04 ExpMxC= 3.30D+03 IAcc=1 IRadAn=         1 AccDes= 0.00D+00
 Harris functional with IExCor=  402 and IRadAn=       1 diagonalized for initial guess.
 HarFok:  IExCor=  402 AccDes= 0.00D+00 IRadAn=         1 IDoV= 1 UseB2=F ITyADJ=14
 ICtDFT=  3500011 ScaDFX=  1.000000  1.000000  1.000000  1.000000
 FoFCou: FMM=F IPFlag=           0 FMFlag=      100000 FMFlg1=           0
         NFxFlg=           0 DoJE=T BraDBF=F KetDBF=T FulRan=T
         wScrn=  0.000000 ICntrl=     500 IOpCl=  0 I1Cent=   200000004 NGrid=           0
         NMat0=    1 NMatS0=      1 NMatT0=    0 NMatD0=    1 NMtDS0=    0 NMtDT0=    0
 Petite list used in FoFCou.
 Keep J ints in memory in symmetry-blocked form, NReq=977399.
 Requested convergence on RMS density matrix=1.00D-08 within 128 cycles.
 Requested convergence on MAX density matrix=1.00D-06.
 Requested convergence on             energy=1.00D-06.
 No special actions if energy rises.
 Integral accuracy reduced to 1.0D-05 until final iterations.
 Initial convergence to 1.0D-05 achieved.  Increase integral accuracy.
 SCF Done:  E(RB-LYP) =  -399.361381091     A.U. after   12 cycles
            NFock= 12  Conv=0.65D-08     -V/T= 2.0036
 Calling FoFJK, ICntrl=      2527 FMM=F ISym2X=1 I1Cent= 0 IOpClX= 0 NMat=1 NMatS=1 NMatT=0.
 ***** Axes restored to original set *****
 -------------------------------------------------------------------
 Center     Atomic                   Forces (Hartrees/Bohr)
 Number     Number              X              Y              Z
 -------------------------------------------------------------------
      1        1          -0.003651822   -0.004192173   -0.008426744
      2        1          -0.001340656   -0.006088792   -0.004534559
      3       16           0.004992477    0.010280965    0.012961302
 -------------------------------------------------------------------
 Cartesian Forces:  Max     0.012961302 RMS     0.007148982

 GradGradGradGradGradGradGradGradGradGradGradGradGradGradGradGradGradGrad
 Berny optimization.
 Using GEDIIS/GDIIS optimizer.
 FormGI is forming the generalized inverse of G from B-inverse, IUseBI=4.
 Internal  Forces:  Max     0.019311716 RMS     0.011826219
 Search for a local minimum.
 Step number   3 out of a maximum of   20
 All quantities printed in internal units (Hartrees-Bohrs-Radians)
 Mixed Optimization -- RFO/linear search
 Update second derivatives using D2CorX and points    2    3
 The second derivative matrix:
                          R1        R2        A1
           R1           0.65721
           R2          -0.14660   0.62684
           A1           0.00980   0.00370   0.15985
 ITU=  0  1  0
 Use linear search instead of GDIIS.
     Eigenvalues ---    0.15955   0.49490   0.78944
 RFO step:  Lambda=-2.45758386D-03 EMin= 1.59552190D-01
 Quartic linear search produced a step of  0.05687.
 Iteration  1 RMS(Cart)=  0.09520077 RMS(Int)=  0.00407880
 Iteration  2 RMS(Cart)=  0.00440249 RMS(Int)=  0.00000259
 Iteration  3 RMS(Cart)=  0.00000300 RMS(Int)=  0.00000000
 Iteration  4 RMS(Cart)=  0.00000000 RMS(Int)=  0.00000000
 ClnCor:  largest displacement from symmetrization is 3.40D-15 for atom     2.
 Variable       Old X    -DE/DX   Delta X   Delta X   Delta X     New X
                                 (Linear)    (Quad)   (Total)
    R1        2.54078   0.00664   0.02775  -0.00008   0.02767   2.56846
    R2        2.55954   0.00161   0.01967  -0.00127   0.01839   2.57794
    A1        1.72330  -0.01931  -0.00271  -0.12299  -0.12571   1.59759
         Item               Value     Threshold  Converged?
 Maximum Force            0.019312     0.000450     NO 
 RMS     Force            0.011826     0.000300     NO 
 Maximum Displacement     0.101567     0.001800     NO 
 RMS     Displacement     0.098059     0.001200     NO 
 Predicted change in Energy=-1.137457D-03
 GradGradGradGradGradGradGradGradGradGradGradGradGradGradGradGradGradGrad

                          Input orientation:                          
 ---------------------------------------------------------------------
 Center     Atomic      Atomic             Coordinates (Angstroms)
 Number     Number       Type             X           Y           Z
 ---------------------------------------------------------------------
      1          1           0        0.615803   -0.674303   -0.237819
      2          1           0        0.019877    1.083683   -0.839521
      3         16           0        0.664320    0.590621    0.257105
 ---------------------------------------------------------------------
                    Distance matrix (angstroms):
                    1          2          3
     1  H    0.000000
     2  H    1.951330   0.000000
     3  S    1.359168   1.364187   0.000000
 Stoichiometry    H2S
 Framework group  CS[SG(H2S)]
 Deg. of freedom     3
 Full point group                 CS      NOp   2
 Largest Abelian subgroup         CS      NOp   2
 Largest concise Abelian subgroup C1      NOp   1
                         Standard orientation:                         
 ---------------------------------------------------------------------
 Center     Atomic      Atomic             Coordinates (Angstroms)
 Number     Number       Type             X           Y           Z
 ---------------------------------------------------------------------
      1          1           0        0.975659   -0.840730    0.000000
      2          1           0       -0.975659   -0.847924    0.000000
      3         16           0        0.000000    0.105541    0.000000
 ---------------------------------------------------------------------
 Rotational constants (GHZ):    295.4482337    263.3612652    139.2417645
 Standard basis: 6-31G(d,p) (6D, 7F)
 There are    22 symmetry adapted cartesian basis functions of A'  symmetry.
 There are     7 symmetry adapted cartesian basis functions of A"  symmetry.
 There are    22 symmetry adapted basis functions of A'  symmetry.
 There are     7 symmetry adapted basis functions of A"  symmetry.
    29 basis functions,    66 primitive gaussians,    29 cartesian basis functions
     9 alpha electrons        9 beta electrons
       nuclear repulsion energy        12.7071208432 Hartrees.
 NAtoms=    3 NActive=    3 NUniq=    3 SFac= 1.00D+00 NAtFMM=   60 NAOKFM=F Big=F
 Integral buffers will be    131072 words long.
 Raffenetti 2 integral format.
 Two-electron integral symmetry is turned on.
 One-electron integrals computed using PRISM.
 NBasis=    29 RedAO= T EigKep=  2.07D-02  NBF=    22     7
 NBsUse=    29 1.00D-06 EigRej= -1.00D+00 NBFU=    22     7
 Initial guess from the checkpoint file:  "/tmp/allouche/14916/Gau-2841.chk"
 B after Tr=     0.000000    0.000000    0.000000
         Rot=    0.999999    0.000000    0.000000    0.001078 Ang=   0.12 deg.
 Initial guess orbital symmetries:
       Occupied  (A') (A') (A') (A') (A") (A') (A') (A') (A")
       Virtual   (A') (A') (A') (A') (A') (A') (A') (A') (A') (A')
                 (A') (A') (A') (A') (A') (A") (A") (A") (A") (A")
 ExpMin= 1.17D-01 ExpMax= 2.19D+04 ExpMxC= 3.30D+03 IAcc=1 IRadAn=         1 AccDes= 0.00D+00
 Harris functional with IExCor=  402 and IRadAn=       1 diagonalized for initial guess.
 HarFok:  IExCor=  402 AccDes= 0.00D+00 IRadAn=         1 IDoV= 1 UseB2=F ITyADJ=14
 ICtDFT=  3500011 ScaDFX=  1.000000  1.000000  1.000000  1.000000
 FoFCou: FMM=F IPFlag=           0 FMFlag=      100000 FMFlg1=           0
         NFxFlg=           0 DoJE=T BraDBF=F KetDBF=T FulRan=T
         wScrn=  0.000000 ICntrl=     500 IOpCl=  0 I1Cent=   200000004 NGrid=           0
         NMat0=    1 NMatS0=      1 NMatT0=    0 NMatD0=    1 NMtDS0=    0 NMtDT0=    0
 Petite list used in FoFCou.
 Keep J ints in memory in symmetry-blocked form, NReq=977399.
 Requested convergence on RMS density matrix=1.00D-08 within 128 cycles.
 Requested convergence on MAX density matrix=1.00D-06.
 Requested convergence on             energy=1.00D-06.
 No special actions if energy rises.
 Integral accuracy reduced to 1.0D-05 until final iterations.
 Initial convergence to 1.0D-05 achieved.  Increase integral accuracy.
 SCF Done:  E(RB-LYP) =  -399.362570417     A.U. after    9 cycles
            NFock=  9  Conv=0.99D-08     -V/T= 2.0037
 Calling FoFJK, ICntrl=      2527 FMM=F ISym2X=1 I1Cent= 0 IOpClX= 0 NMat=1 NMatS=1 NMatT=0.
 ***** Axes restored to original set *****
 -------------------------------------------------------------------
 Center     Atomic                   Forces (Hartrees/Bohr)
 Number     Number              X              Y              Z
 -------------------------------------------------------------------
      1        1           0.000331176   -0.000460415    0.000497982
      2        1           0.001047068   -0.000117242    0.001998345
      3       16          -0.001378244    0.000577657   -0.002496327
 -------------------------------------------------------------------
 Cartesian Forces:  Max     0.002496327 RMS     0.001253352

 GradGradGradGradGradGradGradGradGradGradGradGradGradGradGradGradGradGrad
 Berny optimization.
 Using GEDIIS/GDIIS optimizer.
 FormGI is forming the generalized inverse of G from B-inverse, IUseBI=4.
 Internal  Forces:  Max     0.002143630 RMS     0.001636979
 Search for a local minimum.
 Step number   4 out of a maximum of   20
 All quantities printed in internal units (Hartrees-Bohrs-Radians)
 Mixed Optimization -- RFO/linear search
 Update second derivatives using D2CorX and points    3    4
 DE= -1.19D-03 DEPred=-1.14D-03 R= 1.05D+00
 TightC=F SS=  1.41D+00  RLast= 1.30D-01 DXNew= 8.4853D-01 3.9007D-01
 Trust test= 1.05D+00 RLast= 1.30D-01 DXMaxT set to 5.05D-01
 The second derivative matrix:
                          R1        R2        A1
           R1           0.60372
           R2          -0.17157   0.61534
           A1           0.05686   0.02245   0.18407
 ITU=  1  0  1  0
 Use linear search instead of GDIIS.
     Eigenvalues ---    0.17121   0.44979   0.78212
 RFO step:  Lambda=-5.47602510D-06 EMin= 1.71208214D-01
 Quartic linear search produced a step of -0.09080.
 Iteration  1 RMS(Cart)=  0.00863054 RMS(Int)=  0.00003354
 Iteration  2 RMS(Cart)=  0.00003394 RMS(Int)=  0.00000000
 Iteration  3 RMS(Cart)=  0.00000000 RMS(Int)=  0.00000000
 ClnCor:  largest displacement from symmetrization is 1.62D-15 for atom     2.
 Variable       Old X    -DE/DX   Delta X   Delta X   Delta X     New X
                                 (Linear)    (Quad)   (Total)
    R1        2.56846   0.00024  -0.00251   0.00060  -0.00191   2.56654
    R2        2.57794  -0.00214  -0.00167  -0.00275  -0.00442   2.57352
    A1        1.59759   0.00184   0.01141  -0.00031   0.01111   1.60870
         Item               Value     Threshold  Converged?
 Maximum Force            0.002144     0.000450     NO 
 RMS     Force            0.001637     0.000300     NO 
 Maximum Displacement     0.008367     0.001800     NO 
 RMS     Displacement     0.008611     0.001200     NO 
 Predicted change in Energy=-1.476151D-05
 GradGradGradGradGradGradGradGradGradGradGradGradGradGradGradGradGradGrad

                          Input orientation:                          
 ---------------------------------------------------------------------
 Center     Atomic      Atomic             Coordinates (Angstroms)
 Number     Number       Type             X           Y           Z
 ---------------------------------------------------------------------
      1          1           0        0.617831   -0.677364   -0.234846
      2          1           0        0.019595    1.088111   -0.838668
      3         16           0        0.662574    0.589254    0.253279
 ---------------------------------------------------------------------
                    Distance matrix (angstroms):
                    1          2          3
     1  H    0.000000
     2  H    1.959437   0.000000
     3  S    1.358157   1.361847   0.000000
 Stoichiometry    H2S
 Framework group  CS[SG(H2S)]
 Deg. of freedom     3
 Full point group                 CS      NOp   2
 Largest Abelian subgroup         CS      NOp   2
 Largest concise Abelian subgroup C1      NOp   1
                         Standard orientation:                         
 ---------------------------------------------------------------------
 Center     Atomic      Atomic             Coordinates (Angstroms)
 Number     Number       Type             X           Y           Z
 ---------------------------------------------------------------------
      1          1           0        0.979715   -0.835803    0.000000
      2          1           0       -0.979715   -0.841124    0.000000
      3         16           0        0.000000    0.104808    0.000000
 ---------------------------------------------------------------------
 Rotational constants (GHZ):    299.5746525    261.2027447    139.5379376
 Standard basis: 6-31G(d,p) (6D, 7F)
 There are    22 symmetry adapted cartesian basis functions of A'  symmetry.
 There are     7 symmetry adapted cartesian basis functions of A"  symmetry.
 There are    22 symmetry adapted basis functions of A'  symmetry.
 There are     7 symmetry adapted basis functions of A"  symmetry.
    29 basis functions,    66 primitive gaussians,    29 cartesian basis functions
     9 alpha electrons        9 beta electrons
       nuclear repulsion energy        12.7212987398 Hartrees.
 NAtoms=    3 NActive=    3 NUniq=    3 SFac= 1.00D+00 NAtFMM=   60 NAOKFM=F Big=F
 Integral buffers will be    131072 words long.
 Raffenetti 2 integral format.
 Two-electron integral symmetry is turned on.
 One-electron integrals computed using PRISM.
 NBasis=    29 RedAO= T EigKep=  2.07D-02  NBF=    22     7
 NBsUse=    29 1.00D-06 EigRej= -1.00D+00 NBFU=    22     7
 Initial guess from the checkpoint file:  "/tmp/allouche/14916/Gau-2841.chk"
 B after Tr=     0.000000    0.000000    0.000000
         Rot=    1.000000    0.000000    0.000000    0.000265 Ang=   0.03 deg.
 Initial guess orbital symmetries:
       Occupied  (A') (A') (A') (A') (A") (A') (A') (A') (A")
       Virtual   (A') (A') (A') (A') (A') (A') (A') (A') (A') (A')
                 (A') (A') (A') (A') (A') (A") (A") (A") (A") (A")
 Keep J ints in memory in symmetry-blocked form, NReq=977399.
 Requested convergence on RMS density matrix=1.00D-08 within 128 cycles.
 Requested convergence on MAX density matrix=1.00D-06.
 Requested convergence on             energy=1.00D-06.
 No special actions if energy rises.
 SCF Done:  E(RB-LYP) =  -399.362586964     A.U. after    8 cycles
            NFock=  8  Conv=0.15D-08     -V/T= 2.0036
 Calling FoFJK, ICntrl=      2527 FMM=F ISym2X=1 I1Cent= 0 IOpClX= 0 NMat=1 NMatS=1 NMatT=0.
 ***** Axes restored to original set *****
 -------------------------------------------------------------------
 Center     Atomic                   Forces (Hartrees/Bohr)
 Number     Number              X              Y              Z
 -------------------------------------------------------------------
      1        1          -0.000024834   -0.000575509   -0.000230544
      2        1           0.000540359   -0.000428489    0.000914741
      3       16          -0.000515525    0.001003998   -0.000684197
 -------------------------------------------------------------------
 Cartesian Forces:  Max     0.001003998 RMS     0.000618171

 GradGradGradGradGradGradGradGradGradGradGradGradGradGradGradGradGradGrad
 Berny optimization.
 Using GEDIIS/GDIIS optimizer.
 FormGI is forming the generalized inverse of G from B-inverse, IUseBI=4.
 Internal  Forces:  Max     0.001145631 RMS     0.000752346
 Search for a local minimum.
 Step number   5 out of a maximum of   20
 All quantities printed in internal units (Hartrees-Bohrs-Radians)
 Mixed Optimization -- En-DIIS/RFO-DIIS
 Update second derivatives using D2CorX and points    3    4    5
 DE= -1.65D-05 DEPred=-1.48D-05 R= 1.12D+00
 TightC=F SS=  1.41D+00  RLast= 1.21D-02 DXNew= 8.4853D-01 3.6323D-02
 Trust test= 1.12D+00 RLast= 1.21D-02 DXMaxT set to 5.05D-01
 The second derivative matrix:
                          R1        R2        A1
           R1           0.60346
           R2          -0.13275   0.48671
           A1           0.01633   0.08102   0.20295
 ITU=  1  1  0  1
 Use linear search instead of GDIIS.
     Eigenvalues ---    0.17495   0.42607   0.69210
 RFO step:  Lambda=-2.47388469D-06 EMin= 1.74949688D-01
 Quartic linear search produced a step of  0.13932.
 Iteration  1 RMS(Cart)=  0.00103549 RMS(Int)=  0.00000032
 Iteration  2 RMS(Cart)=  0.00000024 RMS(Int)=  0.00000000
 ClnCor:  largest displacement from symmetrization is 1.38D-15 for atom     1.
 Variable       Old X    -DE/DX   Delta X   Delta X   Delta X     New X
                                 (Linear)    (Quad)   (Total)
    R1        2.56654   0.00062  -0.00027   0.00076   0.00049   2.56703
    R2        2.57352  -0.00115  -0.00062  -0.00173  -0.00235   2.57117
    A1        1.60870  -0.00002   0.00155  -0.00077   0.00078   1.60948
         Item               Value     Threshold  Converged?
 Maximum Force            0.001146     0.000450     NO 
 RMS     Force            0.000752     0.000300     NO 
 Maximum Displacement     0.001069     0.001800     YES
 RMS     Displacement     0.001035     0.001200     YES
 Predicted change in Energy=-1.488597D-06
 GradGradGradGradGradGradGradGradGradGradGradGradGradGradGradGradGradGrad

                          Input orientation:                          
 ---------------------------------------------------------------------
 Center     Atomic      Atomic             Coordinates (Angstroms)
 Number     Number       Type             X           Y           Z
 ---------------------------------------------------------------------
      1          1           0        0.617910   -0.677620   -0.234773
      2          1           0        0.019853    1.088085   -0.838175
      3         16           0        0.662237    0.589537    0.252713
 ---------------------------------------------------------------------
                    Distance matrix (angstroms):
                    1          2          3
     1  H    0.000000
     2  H    1.959459   0.000000
     3  S    1.358416   1.360604   0.000000
 Stoichiometry    H2S
 Framework group  CS[SG(H2S)]
 Deg. of freedom     3
 Full point group                 CS      NOp   2
 Largest Abelian subgroup         CS      NOp   2
 Largest concise Abelian subgroup C1      NOp   1
                         Standard orientation:                         
 ---------------------------------------------------------------------
 Center     Atomic      Atomic             Coordinates (Angstroms)
 Number     Number       Type             X           Y           Z
 ---------------------------------------------------------------------
      1          1           0        0.979728   -0.836244    0.000000
      2          1           0       -0.979728   -0.839400    0.000000
      3         16           0        0.000000    0.104728    0.000000
 ---------------------------------------------------------------------
 Rotational constants (GHZ):    300.0224700    261.2053004    139.6357478
 Standard basis: 6-31G(d,p) (6D, 7F)
 There are    22 symmetry adapted cartesian basis functions of A'  symmetry.
 There are     7 symmetry adapted cartesian basis functions of A"  symmetry.
 There are    22 symmetry adapted basis functions of A'  symmetry.
 There are     7 symmetry adapted basis functions of A"  symmetry.
    29 basis functions,    66 primitive gaussians,    29 cartesian basis functions
     9 alpha electrons        9 beta electrons
       nuclear repulsion energy        12.7257839748 Hartrees.
 NAtoms=    3 NActive=    3 NUniq=    3 SFac= 1.00D+00 NAtFMM=   60 NAOKFM=F Big=F
 Integral buffers will be    131072 words long.
 Raffenetti 2 integral format.
 Two-electron integral symmetry is turned on.
 One-electron integrals computed using PRISM.
 NBasis=    29 RedAO= T EigKep=  2.07D-02  NBF=    22     7
 NBsUse=    29 1.00D-06 EigRej= -1.00D+00 NBFU=    22     7
 Initial guess from the checkpoint file:  "/tmp/allouche/14916/Gau-2841.chk"
 B after Tr=     0.000000    0.000000    0.000000
         Rot=    1.000000    0.000000    0.000000    0.000303 Ang=   0.03 deg.
 Initial guess orbital symmetries:
       Occupied  (A') (A') (A') (A') (A") (A') (A') (A') (A")
       Virtual   (A') (A') (A') (A') (A') (A') (A') (A') (A') (A')
                 (A') (A') (A') (A') (A') (A") (A") (A") (A") (A")
 Keep J ints in memory in symmetry-blocked form, NReq=977399.
 Requested convergence on RMS density matrix=1.00D-08 within 128 cycles.
 Requested convergence on MAX density matrix=1.00D-06.
 Requested convergence on             energy=1.00D-06.
 No special actions if energy rises.
 SCF Done:  E(RB-LYP) =  -399.362589179     A.U. after    7 cycles
            NFock=  7  Conv=0.55D-08     -V/T= 2.0036
 Calling FoFJK, ICntrl=      2527 FMM=F ISym2X=1 I1Cent= 0 IOpClX= 0 NMat=1 NMatS=1 NMatT=0.
 ***** Axes restored to original set *****
 -------------------------------------------------------------------
 Center     Atomic                   Forces (Hartrees/Bohr)
 Number     Number              X              Y              Z
 -------------------------------------------------------------------
      1        1          -0.000042183   -0.000434618   -0.000219649
      2        1           0.000263477   -0.000257907    0.000430513
      3       16          -0.000221294    0.000692525   -0.000210864
 -------------------------------------------------------------------
 Cartesian Forces:  Max     0.000692525 RMS     0.000354843

 GradGradGradGradGradGradGradGradGradGradGradGradGradGradGradGradGradGrad
 Berny optimization.
 Using GEDIIS/GDIIS optimizer.
 FormGI is forming the generalized inverse of G from B-inverse, IUseBI=4.
 Internal  Forces:  Max     0.000564121 RMS     0.000437628
 Search for a local minimum.
 Step number   6 out of a maximum of   20
 All quantities printed in internal units (Hartrees-Bohrs-Radians)
 Mixed Optimization -- En-DIIS/RFO-DIIS
 Swapping is turned off.
 Update second derivatives using D2CorX and points    3    4    5    6
 DE= -2.21D-06 DEPred=-1.49D-06 R= 1.49D+00
 TightC=F SS=  1.41D+00  RLast= 2.52D-03 DXNew= 8.4853D-01 7.5664D-03
 Trust test= 1.49D+00 RLast= 2.52D-03 DXMaxT set to 5.05D-01
 The second derivative matrix:
                          R1        R2        A1
           R1           0.49444
           R2           0.05445   0.26700
           A1           0.02594   0.02438   0.21018
 ITU=  1  1  1  0
     Eigenvalues ---    0.20104   0.26062   0.50996
 En-DIIS/RFO-DIIS IScMMF=        0 using points:     6    5
 RFO step:  Lambda=-1.06600198D-06.
 DidBck=F Rises=F RFO-DIIS coefs:    1.95285   -0.95285
 Iteration  1 RMS(Cart)=  0.00125696 RMS(Int)=  0.00000045
 Iteration  2 RMS(Cart)=  0.00000047 RMS(Int)=  0.00000000
 ClnCor:  largest displacement from symmetrization is 5.24D-16 for atom     1.
 Variable       Old X    -DE/DX   Delta X   Delta X   Delta X     New X
                                 (Linear)    (Quad)   (Total)
    R1        2.56703   0.00049   0.00047   0.00080   0.00127   2.56830
    R2        2.57117  -0.00056  -0.00224  -0.00008  -0.00232   2.56885
    A1        1.60948  -0.00014   0.00074  -0.00131  -0.00057   1.60891
         Item               Value     Threshold  Converged?
 Maximum Force            0.000564     0.000450     NO 
 RMS     Force            0.000438     0.000300     NO 
 Maximum Displacement     0.001187     0.001800     YES
 RMS     Displacement     0.001257     0.001200     NO 
 Predicted change in Energy=-1.002617D-06
 GradGradGradGradGradGradGradGradGradGradGradGradGradGradGradGradGradGrad

                          Input orientation:                          
 ---------------------------------------------------------------------
 Center     Atomic      Atomic             Coordinates (Angstroms)
 Number     Number       Type             X           Y           Z
 ---------------------------------------------------------------------
      1          1           0        0.617742   -0.677644   -0.235108
      2          1           0        0.020205    1.087481   -0.837681
      3         16           0        0.662053    0.590165    0.252554
 ---------------------------------------------------------------------
                    Distance matrix (angstroms):
                    1          2          3
     1  H    0.000000
     2  H    1.958522   0.000000
     3  S    1.359087   1.359377   0.000000
 Stoichiometry    H2S
 Framework group  CS[SG(H2S)]
 Deg. of freedom     3
 Full point group                 CS      NOp   2
 Largest Abelian subgroup         CS      NOp   2
 Largest concise Abelian subgroup C1      NOp   1
                         Standard orientation:                         
 ---------------------------------------------------------------------
 Center     Atomic      Atomic             Coordinates (Angstroms)
 Number     Number       Type             X           Y           Z
 ---------------------------------------------------------------------
      1          1           0        0.979261   -0.837688    0.000000
      2          1           0       -0.979261   -0.838106    0.000000
      3         16           0        0.000000    0.104737    0.000000
 ---------------------------------------------------------------------
 Rotational constants (GHZ):    299.9626603    261.4597202    139.6954520
 Standard basis: 6-31G(d,p) (6D, 7F)
 There are    22 symmetry adapted cartesian basis functions of A'  symmetry.
 There are     7 symmetry adapted cartesian basis functions of A"  symmetry.
 There are    22 symmetry adapted basis functions of A'  symmetry.
 There are     7 symmetry adapted basis functions of A"  symmetry.
    29 basis functions,    66 primitive gaussians,    29 cartesian basis functions
     9 alpha electrons        9 beta electrons
       nuclear repulsion energy        12.7284559899 Hartrees.
 NAtoms=    3 NActive=    3 NUniq=    3 SFac= 1.00D+00 NAtFMM=   60 NAOKFM=F Big=F
 Integral buffers will be    131072 words long.
 Raffenetti 2 integral format.
 Two-electron integral symmetry is turned on.
 One-electron integrals computed using PRISM.
 NBasis=    29 RedAO= T EigKep=  2.07D-02  NBF=    22     7
 NBsUse=    29 1.00D-06 EigRej= -1.00D+00 NBFU=    22     7
 Initial guess from the checkpoint file:  "/tmp/allouche/14916/Gau-2841.chk"
 B after Tr=     0.000000    0.000000    0.000000
         Rot=    1.000000    0.000000    0.000000    0.000383 Ang=   0.04 deg.
 Initial guess orbital symmetries:
       Occupied  (A') (A') (A') (A') (A") (A') (A') (A') (A")
       Virtual   (A') (A') (A') (A') (A') (A') (A') (A') (A') (A')
                 (A') (A') (A') (A') (A') (A") (A") (A") (A") (A")
 Keep J ints in memory in symmetry-blocked form, NReq=977399.
 Requested convergence on RMS density matrix=1.00D-08 within 128 cycles.
 Requested convergence on MAX density matrix=1.00D-06.
 Requested convergence on             energy=1.00D-06.
 No special actions if energy rises.
 SCF Done:  E(RB-LYP) =  -399.362590266     A.U. after    7 cycles
            NFock=  7  Conv=0.42D-08     -V/T= 2.0036
 Calling FoFJK, ICntrl=      2527 FMM=F ISym2X=1 I1Cent= 0 IOpClX= 0 NMat=1 NMatS=1 NMatT=0.
 ***** Axes restored to original set *****
 -------------------------------------------------------------------
 Center     Atomic                   Forces (Hartrees/Bohr)
 Number     Number              X              Y              Z
 -------------------------------------------------------------------
      1        1          -0.000012087   -0.000149634   -0.000070887
      2        1          -0.000013090   -0.000003430   -0.000026533
      3       16           0.000025177    0.000153063    0.000097420
 -------------------------------------------------------------------
 Cartesian Forces:  Max     0.000153063 RMS     0.000083000

 GradGradGradGradGradGradGradGradGradGradGradGradGradGradGradGradGradGrad
 Berny optimization.
 Using GEDIIS/GDIIS optimizer.
 FormGI is forming the generalized inverse of G from B-inverse, IUseBI=4.
 Internal  Forces:  Max     0.000165421 RMS     0.000098944
 Search for a local minimum.
 Step number   7 out of a maximum of   20
 All quantities printed in internal units (Hartrees-Bohrs-Radians)
 Mixed Optimization -- En-DIIS/RFO-DIIS
 Swapping is turned off.
 Update second derivatives using D2CorX and points    4    5    6    7
 DE= -1.09D-06 DEPred=-1.00D-06 R= 1.08D+00
 TightC=F SS=  1.41D+00  RLast= 2.70D-03 DXNew= 8.4853D-01 8.1105D-03
 Trust test= 1.08D+00 RLast= 2.70D-03 DXMaxT set to 5.05D-01
 The second derivative matrix:
                          R1        R2        A1
           R1           0.43482
           R2           0.08760   0.29605
           A1           0.04875   0.02583   0.19121
 ITU=  1  1  1  1
     Eigenvalues ---    0.18090   0.25374   0.48745
 En-DIIS/RFO-DIIS IScMMF=        0 using points:     7    6    5
 RFO step:  Lambda=-4.72009621D-08.
 DidBck=F Rises=F RFO-DIIS coefs:    1.35351   -0.68362    0.33011
 Iteration  1 RMS(Cart)=  0.00026018 RMS(Int)=  0.00000003
 Iteration  2 RMS(Cart)=  0.00000004 RMS(Int)=  0.00000000
 ClnCor:  largest displacement from symmetrization is 1.11D-15 for atom     1.
 Variable       Old X    -DE/DX   Delta X   Delta X   Delta X     New X
                                 (Linear)    (Quad)   (Total)
    R1        2.56830   0.00017   0.00029   0.00019   0.00048   2.56878
    R2        2.56885   0.00003  -0.00004   0.00008   0.00003   2.56888
    A1        1.60891  -0.00004  -0.00046   0.00015  -0.00030   1.60860
         Item               Value     Threshold  Converged?
 Maximum Force            0.000165     0.000450     YES
 RMS     Force            0.000099     0.000300     YES
 Maximum Displacement     0.000266     0.001800     YES
 RMS     Displacement     0.000260     0.001200     YES
 Predicted change in Energy=-3.836116D-08
 Optimization completed.
    -- Stationary point found.
                           ----------------------------
                           !   Optimized Parameters   !
                           ! (Angstroms and Degrees)  !
 --------------------------                            --------------------------
 ! Name  Definition              Value          Derivative Info.                !
 --------------------------------------------------------------------------------
 ! R1    R(1,3)                  1.3591         -DE/DX =    0.0002              !
 ! R2    R(2,3)                  1.3594         -DE/DX =    0.0                 !
 ! A1    A(1,3,2)               92.1836         -DE/DX =    0.0                 !
 --------------------------------------------------------------------------------
 GradGradGradGradGradGradGradGradGradGradGradGradGradGradGradGradGradGrad

                          Input orientation:                          
 ---------------------------------------------------------------------
 Center     Atomic      Atomic             Coordinates (Angstroms)
 Number     Number       Type             X           Y           Z
 ---------------------------------------------------------------------
      1          1           0        0.617742   -0.677644   -0.235108
      2          1           0        0.020205    1.087481   -0.837681
      3         16           0        0.662053    0.590165    0.252554
 ---------------------------------------------------------------------
                    Distance matrix (angstroms):
                    1          2          3
     1  H    0.000000
     2  H    1.958522   0.000000
     3  S    1.359087   1.359377   0.000000
 Stoichiometry    H2S
 Framework group  CS[SG(H2S)]
 Deg. of freedom     3
 Full point group                 CS      NOp   2
 Largest Abelian subgroup         CS      NOp   2
 Largest concise Abelian subgroup C1      NOp   1
                         Standard orientation:                         
 ---------------------------------------------------------------------
 Center     Atomic      Atomic             Coordinates (Angstroms)
 Number     Number       Type             X           Y           Z
 ---------------------------------------------------------------------
      1          1           0        0.979261   -0.837688    0.000000
      2          1           0       -0.979261   -0.838106    0.000000
      3         16           0        0.000000    0.104737    0.000000
 ---------------------------------------------------------------------
 Rotational constants (GHZ):    299.9626603    261.4597202    139.6954520

 **********************************************************************

            Population analysis using the SCF density.

 **********************************************************************

 Orbital symmetries:
       Occupied  (A') (A') (A') (A') (A") (A') (A') (A') (A")
       Virtual   (A') (A') (A') (A') (A') (A") (A') (A') (A") (A")
                 (A') (A') (A') (A') (A") (A") (A') (A') (A') (A')
 The electronic state is 1-A'.
 Alpha  occ. eigenvalues --  -88.14260  -7.68563  -5.71733  -5.71380  -5.70527
 Alpha  occ. eigenvalues --   -0.66943  -0.39686  -0.32068  -0.21637
 Alpha virt. eigenvalues --   -0.00613   0.02917   0.28490   0.30440   0.31581
 Alpha virt. eigenvalues --    0.33552   0.63267   0.64677   0.68688   0.69678
 Alpha virt. eigenvalues --    0.70614   0.94581   1.09785   1.92633   1.97005
 Alpha virt. eigenvalues --    2.04969   2.09731   2.58820   2.70788   3.91251
          Condensed to atoms (all electrons):
               1          2          3
     1  H    0.654778  -0.013747   0.278749
     2  H   -0.013747   0.654781   0.278749
     3  S    0.278749   0.278749  15.602937
 Mulliken charges:
               1
     1  H    0.080219
     2  H    0.080217
     3  S   -0.160436
 Sum of Mulliken charges =   0.00000
 Mulliken charges with hydrogens summed into heavy atoms:
               1
     3  S    0.000000
 Electronic spatial extent (au):  <R**2>=             43.8666
 Charge=             -0.00000000000002 electrons
 Dipole moment (field-independent basis, Debye):
    X=              0.00026210146894    Y=             -1.37207344061363    Z=              0.00000000000000  Tot=              1.37207346564770
 Quadrupole moment (field-independent basis, Debye-Ang):
   XX=            -12.21725507303231   YY=            -13.47477926480625   ZZ=            -16.51057778883399
   XY=              0.00034925150970   XZ=              0.00000000000000   YZ=              0.00000000000000
 Traceless Quadrupole moment (field-independent basis, Debye-Ang):
   XX=              1.85028230252521   YY=              0.59275811075126   ZZ=             -2.44304041327647
   XY=              0.00034925150970   XZ=              0.00000000000000   YZ=              0.00000000000000
 Octapole moment (field-independent basis, Debye-Ang**2):
  XXX=              0.00087462205877  YYY=             -1.54462987031237  ZZZ=              0.00000000000000  XYY=             -0.00014899530095
  XXY=             -1.03510920543303  XXZ=              0.00000000000000  XZZ=              0.00037288755897  YZZ=             -0.56647025454759
  YYZ=              0.00000000000000  XYZ=              0.00000000000000
 Hexadecapole moment (field-independent basis, Debye-Ang**3):
 XXXX=            -22.23334332088775 YYYY=            -23.90775188045361 ZZZZ=            -22.87542907797828 XXXY=             -0.00095335822237
 XXXZ=              0.00000000000000 YYYX=             -0.00053355549727 YYYZ=              0.00000000000000 ZZZX=              0.00000000000000
 ZZZY=              0.00000000000000 XXYY=             -6.80746701663969 XXZZ=             -7.81924696292415 YYZZ=             -8.01403600514624
 XXYZ=              0.00000000000000 YYXZ=              0.00000000000000 ZZXY=             -0.00047836066295
 N-N= 1.272845598987D+01 E-N=-9.741800843870D+02  KE= 3.979138695065D+02
 Symmetry A'   KE= 3.593964352127D+02
 Symmetry A"   KE= 3.851743429375D+01
 1\1\GINC-ILMFIXE086\FOpt\RBLYP\6-31G(d,p)\H2S1\ALLOUCHE\14-Feb-2018\0\
 \# BLYP/6-31G** Opt Freq\\Gaussian file generated by cchemi\\0,1\H,0.6
 177418244,-0.6776442901,-0.235108031\H,0.0202050613,1.0874805324,-0.83
 7681254\S,0.6620531143,0.5901647577,0.252554285\\Version=EM64L-G09RevD
 .01\State=1-A'\HF=-399.3625903\RMSD=4.178e-09\RMSF=8.300e-05\Dipole=-0
 .1964389,-0.2207109,-0.4517732\Quadrupole=-1.2203332,1.1536707,0.06666
 25,-0.5418807,0.9870087,-0.1127848\PG=CS [SG(H2S1)]\\@


 What some people mistake for the high cost
 of living is really the cost of living high.
                              -- Doug Larson
 Job cpu time:       0 days  0 hours  0 minutes 13.4 seconds.
 File lengths (MBytes):  RWF=      5 Int=      0 D2E=      0 Chk=      1 Scr=      1
 Normal termination of Gaussian 09 at Wed Feb 14 15:34:32 2018.
 Link1:  Proceeding to internal job step number  2.
 ---------------------------------------------------------------------
 #N Geom=AllCheck Guess=TCheck SCRF=Check GenChk RBLYP/6-31G(d,p) Freq
 ---------------------------------------------------------------------
 1/10=4,29=7,30=1,38=1,40=1/1,3;
 2/12=2,40=1/2;
 3/5=1,6=6,7=101,11=2,14=-4,16=1,25=1,30=1,70=2,71=2,74=402,116=1,140=1/1,2,3;
 4/5=101/1;
 5/5=2,98=1/2;
 8/6=4,10=90,11=11/1;
 11/6=1,8=1,9=11,15=111,16=1/1,2,10;
 10/6=1/2;
 6/7=2,8=2,9=2,10=2,18=1,28=1/1;
 7/8=1,10=1,25=1/1,2,3,16;
 1/10=4,30=1/3;
 99//99;
 Structure from the checkpoint file:  "/tmp/allouche/14916/Gau-2841.chk"
 ---------------------------------
 Gaussian file generated by cchemi
 ---------------------------------
 Charge =  0 Multiplicity = 1
 Redundant internal coordinates found in file.
 H,0,0.6177418244,-0.6776442901,-0.235108031
 H,0,0.0202050613,1.0874805324,-0.837681254
 S,0,0.6620531143,0.5901647577,0.252554285
 Recover connectivity data from disk.

 GradGradGradGradGradGradGradGradGradGradGradGradGradGradGradGradGradGrad
 Berny optimization.
 Initialization pass.
                           ----------------------------
                           !    Initial Parameters    !
                           ! (Angstroms and Degrees)  !
 --------------------------                            --------------------------
 ! Name  Definition              Value          Derivative Info.                !
 --------------------------------------------------------------------------------
 ! R1    R(1,3)                  1.3591         calculate D2E/DX2 analytically  !
 ! R2    R(2,3)                  1.3594         calculate D2E/DX2 analytically  !
 ! A1    A(1,3,2)               92.1836         calculate D2E/DX2 analytically  !
 --------------------------------------------------------------------------------
 Trust Radius=3.00D-01 FncErr=1.00D-07 GrdErr=1.00D-07
 Number of steps in this run=      2 maximum allowed number of steps=      2.
 GradGradGradGradGradGradGradGradGradGradGradGradGradGradGradGradGradGrad

                          Input orientation:                          
 ---------------------------------------------------------------------
 Center     Atomic      Atomic             Coordinates (Angstroms)
 Number     Number       Type             X           Y           Z
 ---------------------------------------------------------------------
      1          1           0        0.617742   -0.677644   -0.235108
      2          1           0        0.020205    1.087481   -0.837681
      3         16           0        0.662053    0.590165    0.252554
 ---------------------------------------------------------------------
                    Distance matrix (angstroms):
                    1          2          3
     1  H    0.000000
     2  H    1.958522   0.000000
     3  S    1.359087   1.359377   0.000000
 Stoichiometry    H2S
 Framework group  CS[SG(H2S)]
 Deg. of freedom     3
 Full point group                 CS      NOp   2
 Largest Abelian subgroup         CS      NOp   2
 Largest concise Abelian subgroup C1      NOp   1
                         Standard orientation:                         
 ---------------------------------------------------------------------
 Center     Atomic      Atomic             Coordinates (Angstroms)
 Number     Number       Type             X           Y           Z
 ---------------------------------------------------------------------
      1          1           0        0.979261   -0.837688    0.000000
      2          1           0       -0.979261   -0.838106    0.000000
      3         16           0        0.000000    0.104737    0.000000
 ---------------------------------------------------------------------
 Rotational constants (GHZ):    299.9626603    261.4597202    139.6954520
 Standard basis: 6-31G(d,p) (6D, 7F)
 There are    22 symmetry adapted cartesian basis functions of A'  symmetry.
 There are     7 symmetry adapted cartesian basis functions of A"  symmetry.
 There are    22 symmetry adapted basis functions of A'  symmetry.
 There are     7 symmetry adapted basis functions of A"  symmetry.
    29 basis functions,    66 primitive gaussians,    29 cartesian basis functions
     9 alpha electrons        9 beta electrons
       nuclear repulsion energy        12.7284559899 Hartrees.
 NAtoms=    3 NActive=    3 NUniq=    3 SFac= 1.00D+00 NAtFMM=   60 NAOKFM=F Big=F
 Integral buffers will be    131072 words long.
 Raffenetti 2 integral format.
 Two-electron integral symmetry is turned on.
 One-electron integrals computed using PRISM.
 NBasis=    29 RedAO= T EigKep=  2.07D-02  NBF=    22     7
 NBsUse=    29 1.00D-06 EigRej= -1.00D+00 NBFU=    22     7
 Initial guess from the checkpoint file:  "/tmp/allouche/14916/Gau-2841.chk"
 B after Tr=     0.000000    0.000000    0.000000
         Rot=    1.000000    0.000000    0.000000    0.000000 Ang=   0.00 deg.
 Initial guess orbital symmetries:
       Occupied  (A') (A') (A') (A') (A") (A') (A') (A') (A")
       Virtual   (A') (A') (A') (A') (A') (A") (A') (A') (A") (A")
                 (A') (A') (A') (A') (A") (A") (A') (A') (A') (A')
 Keep J ints in memory in symmetry-blocked form, NReq=977399.
 Requested convergence on RMS density matrix=1.00D-08 within 128 cycles.
 Requested convergence on MAX density matrix=1.00D-06.
 Requested convergence on             energy=1.00D-06.
 No special actions if energy rises.
 SCF Done:  E(RB-LYP) =  -399.362590266     A.U. after    1 cycles
            NFock=  1  Conv=0.22D-08     -V/T= 2.0036
 Range of M.O.s used for correlation:     1    29
 NBasis=    29 NAE=     9 NBE=     9 NFC=     0 NFV=     0
 NROrb=     29 NOA=     9 NOB=     9 NVA=    20 NVB=    20
 Symmetrizing basis deriv contribution to polar:
 IMax=3 JMax=2 DiffMx= 0.00D+00
 G2DrvN: will do     4 centers at a time, making    1 passes.
 Calling FoFCou, ICntrl=  3507 FMM=F I1Cent=   0 AccDes= 0.00D+00.
 End of G2Drv F.D. properties file   721 does not exist.
 End of G2Drv F.D. properties file   722 does not exist.
 End of G2Drv F.D. properties file   788 does not exist.
          IDoAtm=111
          Differentiating once with respect to electric field.
                with respect to dipole field.
          Differentiating once with respect to nuclear coordinates.
 Keep J ints in memory in symmetry-blocked form, NReq=955356.
          There are    12 degrees of freedom in the 1st order CPHF.  IDoFFX=6 NUNeed=     3.
      9 vectors produced by pass  0 Test12= 1.50D-15 8.33D-09 XBig12= 2.06D+01 3.65D+00.
 AX will form     9 AO Fock derivatives at one time.
      9 vectors produced by pass  1 Test12= 1.50D-15 8.33D-09 XBig12= 2.06D+00 8.61D-01.
      9 vectors produced by pass  2 Test12= 1.50D-15 8.33D-09 XBig12= 1.70D-02 5.69D-02.
      9 vectors produced by pass  3 Test12= 1.50D-15 8.33D-09 XBig12= 2.21D-05 1.70D-03.
      5 vectors produced by pass  4 Test12= 1.50D-15 8.33D-09 XBig12= 1.28D-08 4.58D-05.
      3 vectors produced by pass  5 Test12= 1.50D-15 8.33D-09 XBig12= 8.17D-13 5.01D-07.
 InvSVY:  IOpt=1 It=  1 EMax= 8.88D-16
 Solved reduced A of dimension    44 with     9 vectors.
 Isotropic polarizability for W=    0.000000       15.04 Bohr**3.
 End of Minotr F.D. properties file   721 does not exist.
 End of Minotr F.D. properties file   722 does not exist.
 End of Minotr F.D. properties file   788 does not exist.

 **********************************************************************

            Population analysis using the SCF density.

 **********************************************************************

 Orbital symmetries:
       Occupied  (A') (A') (A') (A') (A") (A') (A') (A') (A")
       Virtual   (A') (A') (A') (A') (A') (A") (A') (A') (A") (A")
                 (A') (A') (A') (A') (A") (A") (A') (A') (A') (A')
 The electronic state is 1-A'.
 Alpha  occ. eigenvalues --  -88.14260  -7.68563  -5.71733  -5.71380  -5.70527
 Alpha  occ. eigenvalues --   -0.66943  -0.39686  -0.32068  -0.21637
 Alpha virt. eigenvalues --   -0.00613   0.02917   0.28490   0.30440   0.31581
 Alpha virt. eigenvalues --    0.33552   0.63267   0.64677   0.68688   0.69678
 Alpha virt. eigenvalues --    0.70614   0.94581   1.09785   1.92633   1.97005
 Alpha virt. eigenvalues --    2.04969   2.09731   2.58820   2.70788   3.91251
          Condensed to atoms (all electrons):
               1          2          3
     1  H    0.654778  -0.013747   0.278749
     2  H   -0.013747   0.654781   0.278749
     3  S    0.278749   0.278749  15.602937
 Mulliken charges:
               1
     1  H    0.080219
     2  H    0.080217
     3  S   -0.160436
 Sum of Mulliken charges =   0.00000
 Mulliken charges with hydrogens summed into heavy atoms:
               1
     3  S    0.000000
 APT charges:
               1
     1  H    0.028616
     2  H    0.028597
     3  S   -0.057213
 Sum of APT charges =   0.00000
 APT charges with hydrogens summed into heavy atoms:
               1
     3  S    0.000000
 Electronic spatial extent (au):  <R**2>=             43.8666
 Charge=             -0.00000000000003 electrons
 Dipole moment (field-independent basis, Debye):
    X=              0.00026233447973    Y=             -1.37207315643407    Z=              0.00000000000000  Tot=              1.37207318151268
 Quadrupole moment (field-independent basis, Debye-Ang):
   XX=            -12.21725546832337   YY=            -13.47477963176543   ZZ=            -16.51057802796875
   XY=              0.00034913832514   XZ=              0.00000000000000   YZ=              0.00000000000000
 Traceless Quadrupole moment (field-independent basis, Debye-Ang):
   XX=              1.85028224102915   YY=              0.59275807758708   ZZ=             -2.44304031861623
   XY=              0.00034913832514   XZ=              0.00000000000000   YZ=              0.00000000000000
 Octapole moment (field-independent basis, Debye-Ang**2):
  XXX=              0.00087500257756  YYY=             -1.54462947468864  ZZZ=              0.00000000000000  XYY=             -0.00014875293663
  XXY=             -1.03510883729710  XXZ=              0.00000000000000  XZZ=              0.00037294090108  YZZ=             -0.56647022183985
  YYZ=              0.00000000000000  XYZ=              0.00000000000000
 Hexadecapole moment (field-independent basis, Debye-Ang**3):
 XXXX=            -22.23334438666538 YYYY=            -23.90775284845294 ZZZZ=            -22.87542986039718 XXXY=             -0.00095359351485
 XXXZ=              0.00000000000000 YYYX=             -0.00053373740055 YYYZ=              0.00000000000000 ZZZX=              0.00000000000000
 ZZZY=              0.00000000000000 XXYY=             -6.80746753722288 XXZZ=             -7.81924721237373 YYZZ=             -8.01403626398833
 XXYZ=              0.00000000000000 YYXZ=              0.00000000000000 ZZXY=             -0.00047837229009
 N-N= 1.272845598987D+01 E-N=-9.741800835357D+02  KE= 3.979138691882D+02
 Symmetry A'   KE= 3.593964349804D+02
 Symmetry A"   KE= 3.851743420780D+01
  Exact polarizability:  17.750   0.003  16.146   0.000   0.000  11.239
 Approx polarizability:  31.219   0.008  26.695   0.000   0.000  15.811
 Calling FoFJK, ICntrl=    100527 FMM=F ISym2X=1 I1Cent= 0 IOpClX= 0 NMat=1 NMatS=1 NMatT=0.
 Full mass-weighted force constant matrix:
 Low frequencies ---  -69.8805  -60.9647  -45.5684   -0.0064   -0.0062    0.0054
 Low frequencies --- 1188.0991 2602.3484 2623.3383
 Diagonal vibrational polarizability:
        0.0452118       0.1236152       0.0000000
 Harmonic frequencies (cm**-1), IR intensities (KM/Mole), Raman scattering
 activities (A**4/AMU), depolarization ratios for plane and unpolarized
 incident light, reduced masses (AMU), force constants (mDyne/A),
 and normal coordinates:
                      1                      2                      3
                     A'                     A'                     A'
 Frequencies --   1188.09890096558600              2602.34837562702700              2623.33810741665500
 Red. masses --      1.03933488196810                 1.03592620836265                 1.03972300345792
 Frc consts  --      0.86439223550607                 4.13342304266560                 4.21576461479672
 IR Inten    --      4.40230483363944                 9.99152180120053                11.55748413157555
  Atom  AN      X      Y      Z        X      Y      Z        X      Y      Z
     1   1     0.493429644542   0.506088022595   0.000000000000    -0.495889842687   0.453669241506   0.000000000000     0.533681287373  -0.512511384301   0.000000000000
     2   1    -0.493398695425   0.505907310049   0.000000000000     0.544600353880   0.500779793620   0.000000000000     0.483492258378   0.466606307062   0.000000000000
     3  16    -0.000000975579  -0.031900160864   0.000000000000    -0.001535454851  -0.030086183972   0.000000000000    -0.032063388722   0.001447021840   0.000000000000

 -------------------
 - Thermochemistry -
 -------------------
 Temperature   298.150 Kelvin.  Pressure   1.00000 Atm.
 Atom     1 has atomic number  1 and mass   1.00783
 Atom     2 has atomic number  1 and mass   1.00783
 Atom     3 has atomic number 16 and mass  31.97207
 Molecular mass:    33.98772 amu.
 Principal axes and moments of inertia in atomic units:
                           1         2         3
     Eigenvalues --     6.01655   6.90256  12.91911
           X            1.00000  -0.00166   0.00000
           Y            0.00166   1.00000   0.00000
           Z            0.00000   0.00000   1.00000
 This molecule is an asymmetric top.
 Rotational symmetry number  1.
 Rotational temperatures (Kelvin)     14.39592    12.54807     6.70432
 Rotational constants (GHZ):         299.96266   261.45972   139.69545
 Zero-point vibrational energy      38363.0 (Joules/Mol)
                                    9.16897 (Kcal/Mol)
 Vibrational temperatures:   1709.41  3744.19  3774.39
          (Kelvin)
 
 Zero-point correction=                           0.014612 (Hartree/Particle)
 Thermal correction to Energy=                    0.017462
 Thermal correction to Enthalpy=                  0.018406
 Thermal correction to Gibbs Free Energy=        -0.005632
 Sum of electronic and zero-point Energies=           -399.347979
 Sum of electronic and thermal Energies=              -399.345128
 Sum of electronic and thermal Enthalpies=            -399.344184
 Sum of electronic and thermal Free Energies=         -399.368222
 
                     E (Thermal)             CV                S
                      KCal/Mol        Cal/Mol-Kelvin    Cal/Mol-Kelvin
 Total                   10.958              6.177             50.593
 Electronic               0.000              0.000              0.000
 Translational            0.889              2.981             36.501
 Rotational               0.889              2.981             14.048
 Vibrational              9.180              0.215              0.044
                       Q            Log10(Q)             Ln(Q)
 Total Bot       0.389583D+03          2.590600          5.965076
 Total V=0       0.204876D+10          9.311491         21.440499
 Vib (Bot)       0.190774D-06         -6.719480        -15.472176
 Vib (V=0)       0.100325D+01          0.001411          0.003248
 Electronic      0.100000D+01          0.000000          0.000000
 Translational   0.778822D+07          6.891438         15.868123
 Rotational      0.262205D+03          2.418642          5.569128
 ***** Axes restored to original set *****
 -------------------------------------------------------------------
 Center     Atomic                   Forces (Hartrees/Bohr)
 Number     Number              X              Y              Z
 -------------------------------------------------------------------
      1        1          -0.000012087   -0.000149630   -0.000070886
      2        1          -0.000013091   -0.000003429   -0.000026535
      3       16           0.000025178    0.000153060    0.000097421
 -------------------------------------------------------------------
 Cartesian Forces:  Max     0.000153060 RMS     0.000082999
 FormGI is forming the generalized inverse of G from B-inverse, IUseBI=4.

 GradGradGradGradGradGradGradGradGradGradGradGradGradGradGradGradGradGrad
 Berny optimization.
 Internal  Forces:  Max     0.000165417 RMS     0.000098943
 Search for a local minimum.
 Step number   1 out of a maximum of    2
 All quantities printed in internal units (Hartrees-Bohrs-Radians)
 Second derivative matrix not updated -- analytic derivatives used.
 The second derivative matrix:
                          R1        R2        A1
           R1           0.25267
           R2          -0.00155   0.25228
           A1           0.00819   0.00820   0.17263
 ITU=  0
     Eigenvalues ---    0.17095   0.25258   0.25405
 Angle between quadratic step and forces=   7.98 degrees.
 Linear search not attempted -- first point.
 Iteration  1 RMS(Cart)=  0.00028690 RMS(Int)=  0.00000003
 Iteration  2 RMS(Cart)=  0.00000003 RMS(Int)=  0.00000000
 ClnCor:  largest displacement from symmetrization is 2.24D-15 for atom     1.
 Variable       Old X    -DE/DX   Delta X   Delta X   Delta X     New X
                                 (Linear)    (Quad)   (Total)
    R1        2.56830   0.00017   0.00000   0.00066   0.00066   2.56897
    R2        2.56885   0.00003   0.00000   0.00012   0.00012   2.56897
    A1        1.60891  -0.00004   0.00000  -0.00025  -0.00025   1.60866
         Item               Value     Threshold  Converged?
 Maximum Force            0.000165     0.000450     YES
 RMS     Force            0.000099     0.000300     YES
 Maximum Displacement     0.000310     0.001800     YES
 RMS     Displacement     0.000287     0.001200     YES
 Predicted change in Energy=-6.088287D-08
 Optimization completed.
    -- Stationary point found.
                           ----------------------------
                           !   Optimized Parameters   !
                           ! (Angstroms and Degrees)  !
 --------------------------                            --------------------------
 ! Name  Definition              Value          Derivative Info.                !
 --------------------------------------------------------------------------------
 ! R1    R(1,3)                  1.3591         -DE/DX =    0.0002              !
 ! R2    R(2,3)                  1.3594         -DE/DX =    0.0                 !
 ! A1    A(1,3,2)               92.1836         -DE/DX =    0.0                 !
 --------------------------------------------------------------------------------
 GradGradGradGradGradGradGradGradGradGradGradGradGradGradGradGradGradGrad

 1\1\GINC-ILMFIXE086\Freq\RBLYP\6-31G(d,p)\H2S1\ALLOUCHE\14-Feb-2018\0\
 \#N Geom=AllCheck Guess=TCheck SCRF=Check GenChk RBLYP/6-31G(d,p) Freq
 \\Gaussian file generated by cchemi\\0,1\H,0.6177418244,-0.6776442901,
 -0.235108031\H,0.0202050613,1.0874805324,-0.837681254\S,0.6620531143,0
 .5901647577,0.252554285\\Version=EM64L-G09RevD.01\State=1-A'\HF=-399.3
 625903\RMSD=2.157e-09\RMSF=8.300e-05\ZeroPoint=0.0146117\Thermal=0.017
 4619\Dipole=-0.1964388,-0.2207109,-0.451773\DipoleDeriv=0.1247303,-0.0
 377715,-0.0641442,0.0125891,-0.0529926,-0.0403142,-0.0481947,-0.138214
 ,0.0141105,0.0913541,0.0431127,-0.103302,-0.007276,0.0576317,-0.043878
 5,-0.1192604,0.0540759,-0.063196,-0.2160844,-0.0053412,0.1674462,-0.00
 53131,-0.0046391,0.0841927,0.1674551,0.0841381,0.0490855\Polar=12.4953
 28,-1.0608628,17.3456808,2.1065595,-0.1282302,15.2933558\PG=CS [SG(H2S
 1)]\NImag=0\\0.00591218,0.00224153,0.22470000,0.01246203,0.07556341,0.
 04802404,-0.00011019,-0.00079519,-0.00050432,0.05611040,0.01191652,-0.
 01059132,0.01980488,-0.04368923,0.05793405,0.00352155,-0.00490639,0.00
 531162,0.09540049,-0.06655681,0.16429531,-0.00580199,-0.00144635,-0.01
 195771,-0.05600021,0.03177271,-0.09892204,0.06180220,-0.01415805,-0.21
 410867,-0.09536830,0.04448441,-0.04734272,0.07146320,-0.03032636,0.261
 45140,-0.01598358,-0.07065702,-0.05333566,-0.09489617,0.04675193,-0.16
 960694,0.11087975,0.02390509,0.22294260\\0.00001209,0.00014963,0.00007
 089,0.00001309,0.00000343,0.00002654,-0.00002518,-0.00015306,-0.000097
 42\\\@


 IN NATURE THERE ARE NEITHER REWARDS OR
 PUNISHMENTS -- THERE ARE CONSEQUENCES.

                            -- ROBERT GREEN INGERSOLL
 Job cpu time:       0 days  0 hours  0 minutes  4.4 seconds.
 File lengths (MBytes):  RWF=      5 Int=      0 D2E=      0 Chk=      1 Scr=      1
 Normal termination of Gaussian 09 at Wed Feb 14 15:34:36 2018.
