 Entering Gaussian System, Link 0=/opt/local/Softwares/G09DSrc-Corr5/g09/g09
 Initial command:
 /opt/local/Softwares/G09DSrc-Corr5/g09/l1.exe "/tmp/allouche/26239/Gau-11737.inp" -scrdir="/tmp/allouche/26239/"
 Entering Link 1 = /opt/local/Softwares/G09DSrc-Corr5/g09/l1.exe PID=     11739.
  
 Copyright (c) 1988,1990,1992,1993,1995,1998,2003,2009,2013,
            Gaussian, Inc.  All Rights Reserved.
  
 This is part of the Gaussian(R) 09 program.  It is based on
 the Gaussian(R) 03 system (copyright 2003, Gaussian, Inc.),
 the Gaussian(R) 98 system (copyright 1998, Gaussian, Inc.),
 the Gaussian(R) 94 system (copyright 1995, Gaussian, Inc.),
 the Gaussian 92(TM) system (copyright 1992, Gaussian, Inc.),
 the Gaussian 90(TM) system (copyright 1990, Gaussian, Inc.),
 the Gaussian 88(TM) system (copyright 1988, Gaussian, Inc.),
 the Gaussian 86(TM) system (copyright 1986, Carnegie Mellon
 University), and the Gaussian 82(TM) system (copyright 1983,
 Carnegie Mellon University). Gaussian is a federally registered
 trademark of Gaussian, Inc.
  
 This software contains proprietary and confidential information,
 including trade secrets, belonging to Gaussian, Inc.
  
 This software is provided under written license and may be
 used, copied, transmitted, or stored only in accord with that
 written license.
  
 The following legend is applicable only to US Government
 contracts under FAR:
  
                    RESTRICTED RIGHTS LEGEND
  
 Use, reproduction and disclosure by the US Government is
 subject to restrictions as set forth in subparagraphs (a)
 and (c) of the Commercial Computer Software - Restricted
 Rights clause in FAR 52.227-19.
  
 Gaussian, Inc.
 340 Quinnipiac St., Bldg. 40, Wallingford CT 06492
  
  
 ---------------------------------------------------------------
 Warning -- This program may not be used in any manner that
 competes with the business of Gaussian, Inc. or will provide
 assistance to any competitor of Gaussian, Inc.  The licensee
 of this program is prohibited from giving any competitor of
 Gaussian, Inc. access to this program.  By using this program,
 the user acknowledges that Gaussian, Inc. is engaged in the
 business of creating and licensing software in the field of
 computational chemistry and represents and warrants to the
 licensee that it is not a competitor of Gaussian, Inc. and that
 it will not use this program in any manner prohibited above.
 ---------------------------------------------------------------
  

 Cite this work as:
 Gaussian 09, Revision D.01,
 M. J. Frisch, G. W. Trucks, H. B. Schlegel, G. E. Scuseria, 
 M. A. Robb, J. R. Cheeseman, G. Scalmani, V. Barone, B. Mennucci, 
 G. A. Petersson, H. Nakatsuji, M. Caricato, X. Li, H. P. Hratchian, 
 A. F. Izmaylov, J. Bloino, G. Zheng, J. L. Sonnenberg, M. Hada, 
 M. Ehara, K. Toyota, R. Fukuda, J. Hasegawa, M. Ishida, T. Nakajima, 
 Y. Honda, O. Kitao, H. Nakai, T. Vreven, J. A. Montgomery, Jr., 
 J. E. Peralta, F. Ogliaro, M. Bearpark, J. J. Heyd, E. Brothers, 
 K. N. Kudin, V. N. Staroverov, T. Keith, R. Kobayashi, J. Normand, 
 K. Raghavachari, A. Rendell, J. C. Burant, S. S. Iyengar, J. Tomasi, 
 M. Cossi, N. Rega, J. M. Millam, M. Klene, J. E. Knox, J. B. Cross, 
 V. Bakken, C. Adamo, J. Jaramillo, R. Gomperts, R. E. Stratmann, 
 O. Yazyev, A. J. Austin, R. Cammi, C. Pomelli, J. W. Ochterski, 
 R. L. Martin, K. Morokuma, V. G. Zakrzewski, G. A. Voth, 
 P. Salvador, J. J. Dannenberg, S. Dapprich, A. D. Daniels, 
 O. Farkas, J. B. Foresman, J. V. Ortiz, J. Cioslowski, 
 and D. J. Fox, Gaussian, Inc., Wallingford CT, 2013.
 
 ******************************************
 Gaussian 09:  EM64L-G09RevD.01 24-Apr-2013
                14-Feb-2018 
 ******************************************
 ----------------------------------
 # B3LYP/6-311++G(2df,2pd) Opt Freq
 ----------------------------------
 1/14=-1,18=20,19=15,26=3,38=1/1,3;
 2/9=110,12=2,17=6,18=5,40=1/2;
 3/5=4,6=6,7=1414,11=2,16=1,25=1,30=1,71=1,74=-5/1,2,3;
 4//1;
 5/5=2,38=5/2;
 6/7=2,8=2,9=2,10=2,28=1/1;
 7//1,2,3,16;
 1/14=-1,18=20,19=15,26=3/3(2);
 2/9=110/2;
 99//99;
 2/9=110/2;
 3/5=4,6=6,7=1414,11=2,16=1,25=1,30=1,71=1,74=-5/1,2,3;
 4/5=5,16=3,69=1/1;
 5/5=2,38=5/2;
 7//1,2,3,16;
 1/14=-1,18=20,19=15,26=3/3(-5);
 2/9=110/2;
 6/7=2,8=2,9=2,10=2,19=2,28=1/1;
 99/9=1/99;
 ---------------------------------
 Gaussian file generated by cchemi
 ---------------------------------
 Symbolic Z-matrix:
 Charge =  0 Multiplicity = 1
 H                    0     0.6      -0.44454  -0.19577 
 H                    0     0.1       0.97655  -0.71769 
 O                    0     0.6       0.46799   0.09323 
 

 GradGradGradGradGradGradGradGradGradGradGradGradGradGradGradGradGradGrad
 Berny optimization.
 Initialization pass.
                           ----------------------------
                           !    Initial Parameters    !
                           ! (Angstroms and Degrees)  !
 --------------------------                            --------------------------
 ! Name  Definition              Value          Derivative Info.                !
 --------------------------------------------------------------------------------
 ! R1    R(1,3)                  0.9572         estimate D2E/DX2                !
 ! R2    R(2,3)                  1.0799         estimate D2E/DX2                !
 ! A1    A(1,3,2)              102.8398         estimate D2E/DX2                !
 --------------------------------------------------------------------------------
 Trust Radius=3.00D-01 FncErr=1.00D-07 GrdErr=1.00D-06
 Number of steps in this run=     20 maximum allowed number of steps=    100.
 GradGradGradGradGradGradGradGradGradGradGradGradGradGradGradGradGradGrad

                          Input orientation:                          
 ---------------------------------------------------------------------
 Center     Atomic      Atomic             Coordinates (Angstroms)
 Number     Number       Type             X           Y           Z
 ---------------------------------------------------------------------
      1          1           0        0.600000   -0.444539   -0.195772
      2          1           0        0.100000    0.976550   -0.717694
      3          8           0        0.600000    0.467990    0.093231
 ---------------------------------------------------------------------
                    Distance matrix (angstroms):
                    1          2          3
     1  H    0.000000
     2  H    1.594333   0.000000
     3  O    0.957200   1.079923   0.000000
 Stoichiometry    H2O
 Framework group  CS[SG(H2O)]
 Deg. of freedom     3
 Full point group                 CS      NOp   2
 Largest Abelian subgroup         CS      NOp   2
 Largest concise Abelian subgroup C1      NOp   1
                         Standard orientation:                         
 ---------------------------------------------------------------------
 Center     Atomic      Atomic             Coordinates (Angstroms)
 Number     Number       Type             X           Y           Z
 ---------------------------------------------------------------------
      1          1           0        0.791105   -0.411475    0.000000
      2          1           0       -0.791105   -0.607711    0.000000
      3          8           0        0.000000    0.127398    0.000000
 ---------------------------------------------------------------------
 Rotational constants (GHZ):    719.9250977    387.1923470    251.7795105
 Standard basis: 6-311++G(2df,2pd) (5D, 7F)
 There are    51 symmetry adapted cartesian basis functions of A'  symmetry.
 There are    20 symmetry adapted cartesian basis functions of A"  symmetry.
 There are    45 symmetry adapted basis functions of A'  symmetry.
 There are    19 symmetry adapted basis functions of A"  symmetry.
    64 basis functions,    88 primitive gaussians,    71 cartesian basis functions
     5 alpha electrons        5 beta electrons
       nuclear repulsion energy         8.6747333347 Hartrees.
 NAtoms=    3 NActive=    3 NUniq=    3 SFac= 1.00D+00 NAtFMM=   60 NAOKFM=F Big=F
 Integral buffers will be    131072 words long.
 Raffenetti 2 integral format.
 Two-electron integral symmetry is turned on.
 One-electron integrals computed using PRISM.
 NBasis=    64 RedAO= T EigKep=  2.59D-03  NBF=    45    19
 NBsUse=    64 1.00D-06 EigRej= -1.00D+00 NBFU=    45    19
 ExpMin= 3.60D-02 ExpMax= 8.59D+03 ExpMxC= 1.30D+03 IAcc=3 IRadAn=         5 AccDes= 0.00D+00
 Harris functional with IExCor=  402 and IRadAn=       5 diagonalized for initial guess.
 HarFok:  IExCor=  402 AccDes= 0.00D+00 IRadAn=         5 IDoV= 1 UseB2=F ITyADJ=14
 ICtDFT=  3500011 ScaDFX=  1.000000  1.000000  1.000000  1.000000
 FoFCou: FMM=F IPFlag=           0 FMFlag=      100000 FMFlg1=           0
         NFxFlg=           0 DoJE=T BraDBF=F KetDBF=T FulRan=T
         wScrn=  0.000000 ICntrl=     500 IOpCl=  0 I1Cent=   200000004 NGrid=           0
         NMat0=    1 NMatS0=      1 NMatT0=    0 NMatD0=    1 NMtDS0=    0 NMtDT0=    0
 Petite list used in FoFCou.
 Initial guess orbital symmetries:
       Occupied  (A') (A') (A') (A') (A")
       Virtual   (A') (A') (A') (A') (A") (A') (A') (A') (A') (A')
                 (A') (A") (A") (A') (A') (A") (A') (A') (A') (A')
                 (A") (A") (A') (A') (A') (A') (A') (A") (A') (A")
                 (A') (A') (A") (A') (A") (A") (A") (A') (A') (A')
                 (A') (A') (A') (A") (A') (A") (A') (A') (A") (A")
                 (A') (A") (A') (A") (A') (A') (A') (A') (A')
 The electronic state of the initial guess is 1-A'.
 Keep R1 ints in memory in symmetry-blocked form, NReq=4161973.
 Requested convergence on RMS density matrix=1.00D-08 within 128 cycles.
 Requested convergence on MAX density matrix=1.00D-06.
 Requested convergence on             energy=1.00D-06.
 No special actions if energy rises.
 SCF Done:  E(RB3LYP) =  -76.4531773669     A.U. after    9 cycles
            NFock=  9  Conv=0.18D-08     -V/T= 2.0053

 **********************************************************************

            Population analysis using the SCF density.

 **********************************************************************

 Orbital symmetries:
       Occupied  (A') (A') (A') (A') (A")
       Virtual   (A') (A') (A') (A') (A") (A') (A') (A') (A') (A')
                 (A') (A") (A") (A') (A') (A') (A") (A') (A') (A')
                 (A") (A") (A') (A') (A') (A') (A') (A") (A') (A")
                 (A') (A') (A') (A") (A") (A") (A") (A') (A') (A')
                 (A') (A') (A') (A") (A') (A") (A') (A') (A") (A")
                 (A') (A") (A') (A") (A') (A') (A') (A') (A')
 The electronic state is 1-A'.
 Alpha  occ. eigenvalues --  -19.14193  -1.00190  -0.51632  -0.39768  -0.32041
 Alpha virt. eigenvalues --   -0.02999   0.02529   0.11359   0.14687   0.15122
 Alpha virt. eigenvalues --    0.15317   0.21611   0.22865   0.45199   0.52189
 Alpha virt. eigenvalues --    0.58027   0.64231   0.71539   0.84029   0.89062
 Alpha virt. eigenvalues --    0.96236   1.01189   1.19083   1.28963   1.37570
 Alpha virt. eigenvalues --    1.70083   1.76825   1.85386   2.10040   2.19201
 Alpha virt. eigenvalues --    2.32623   2.66238   2.88595   3.00422   3.12836
 Alpha virt. eigenvalues --    3.14868   3.44988   3.57596   3.58328   3.65019
 Alpha virt. eigenvalues --    3.71878   3.78591   3.89141   3.90096   4.00320
 Alpha virt. eigenvalues --    4.13960   4.31993   4.59680   5.01615   5.35245
 Alpha virt. eigenvalues --    5.40709   5.45960   6.01229   6.04489   6.54672
 Alpha virt. eigenvalues --    6.55631   6.92539   6.95190   6.98950   7.14125
 Alpha virt. eigenvalues --    7.33986   7.55534   7.98433  50.30179
          Condensed to atoms (all electrons):
               1          2          3
     1  H    0.570975  -0.003085   0.249008
     2  H   -0.003085   0.536657   0.252136
     3  O    0.249008   0.252136   7.896252
 Mulliken charges:
               1
     1  H    0.183103
     2  H    0.214292
     3  O   -0.397396
 Sum of Mulliken charges =   0.00000
 Mulliken charges with hydrogens summed into heavy atoms:
               1
     3  O    0.000000
 Electronic spatial extent (au):  <R**2>=             20.8144
 Charge=             -0.00000000000001 electrons
 Dipole moment (field-independent basis, Debye):
    X=              0.07000864564625    Y=             -2.01689428702784    Z=              0.00000000000000  Tot=              2.01810896026720
 Quadrupole moment (field-independent basis, Debye-Ang):
   XX=             -4.45346981597658   YY=             -6.41691286677217   ZZ=             -7.90278100393969
   XY=              0.31769126784658   XZ=              0.00000000000000   YZ=              0.00000000000000
 Traceless Quadrupole moment (field-independent basis, Debye-Ang):
   XX=              1.80425141291956   YY=             -0.15919163787602   ZZ=             -1.64505977504354
   XY=              0.31769126784658   XZ=              0.00000000000000   YZ=              0.00000000000000
 Octapole moment (field-independent basis, Debye-Ang**2):
  XXX=              0.21407224560512  YYY=             -1.20716688425578  ZZZ=              0.00000000000000  XYY=             -0.23007667509146
  XXY=             -1.46224319220851  XXZ=              0.00000000000000  XZZ=              0.07499950762456  YZZ=             -0.29068256902620
  YYZ=              0.00000000000000  XYZ=              0.00000000000000
 Hexadecapole moment (field-independent basis, Debye-Ang**3):
 XXXX=             -7.13511033789407 YYYY=             -8.55322755584942 ZZZZ=             -7.71783757220859 XXXY=             -0.06195806711212
 XXXZ=              0.00000000000000 YYYX=             -0.00169346005027 YYYZ=              0.00000000000000 ZZZX=              0.00000000000000
 ZZZY=              0.00000000000000 XXYY=             -2.16013060248101 XXZZ=             -2.84337983549895 YYZZ=             -2.79730021335839
 XXYZ=              0.00000000000000 YYXZ=              0.00000000000000 ZZXY=             -0.10022687223357
 N-N= 8.674733334742D+00 E-N=-1.981522092065D+02  KE= 7.604805374202D+01
 Symmetry A'   KE= 7.150823580458D+01
 Symmetry A"   KE= 4.539817937440D+00
 Calling FoFJK, ICntrl=      2127 FMM=F ISym2X=1 I1Cent= 0 IOpClX= 0 NMat=1 NMatS=1 NMatT=0.
 ***** Axes restored to original set *****
 -------------------------------------------------------------------
 Center     Atomic                   Forces (Hartrees/Bohr)
 Number     Number              X              Y              Z
 -------------------------------------------------------------------
      1        1          -0.000050277   -0.005687538   -0.001899013
      2        1           0.037226218   -0.037956212    0.060345988
      3        8          -0.037175940    0.043643750   -0.058446975
 -------------------------------------------------------------------
 Cartesian Forces:  Max     0.060345988 RMS     0.038307146

 GradGradGradGradGradGradGradGradGradGradGradGradGradGradGradGradGradGrad
 Berny optimization.
 FormGI is forming the generalized inverse of G from B-inverse, IUseBI=4.
 Internal  Forces:  Max     0.080424671 RMS     0.046562192
 Search for a local minimum.
 Step number   1 out of a maximum of   20
 All quantities printed in internal units (Hartrees-Bohrs-Radians)
 Mixed Optimization -- RFO/linear search
 Second derivative matrix not updated -- first step.
 The second derivative matrix:
                          R1        R2        A1
           R1           0.56080
           R2           0.00000   0.36004
           A1           0.00000   0.00000   0.16000
 ITU=  0
     Eigenvalues ---    0.16000   0.36004   0.56080
 RFO step:  Lambda=-1.72081017D-02 EMin= 1.60000000D-01
 Linear search not attempted -- first point.
 Iteration  1 RMS(Cart)=  0.08898186 RMS(Int)=  0.00811085
 Iteration  2 RMS(Cart)=  0.00576541 RMS(Int)=  0.00000458
 Iteration  3 RMS(Cart)=  0.00000324 RMS(Int)=  0.00000000
 Iteration  4 RMS(Cart)=  0.00000000 RMS(Int)=  0.00000000
 ClnCor:  largest displacement from symmetrization is 7.02D-16 for atom     2.
 Variable       Old X    -DE/DX   Delta X   Delta X   Delta X     New X
                                 (Linear)    (Quad)   (Total)
    R1        1.80885   0.00600   0.00000   0.01037   0.01037   1.81922
    R2        2.04076  -0.08042   0.00000  -0.21319  -0.21319   1.82757
    A1        1.79489  -0.00019   0.00000  -0.00109  -0.00109   1.79381
         Item               Value     Threshold  Converged?
 Maximum Force            0.080425     0.000450     NO 
 RMS     Force            0.046562     0.000300     NO 
 Maximum Displacement     0.087462     0.001800     NO 
 RMS     Displacement     0.094553     0.001200     NO 
 Predicted change in Energy=-8.996037D-03
 GradGradGradGradGradGradGradGradGradGradGradGradGradGradGradGradGradGrad

                          Input orientation:                          
 ---------------------------------------------------------------------
 Center     Atomic      Atomic             Coordinates (Angstroms)
 Number     Number       Type             X           Y           Z
 ---------------------------------------------------------------------
      1          1           0        0.590978   -0.427045   -0.207769
      2          1           0        0.129381    0.930267   -0.675235
      3          8           0        0.579640    0.496779    0.062770
 ---------------------------------------------------------------------
                    Distance matrix (angstroms):
                    1          2          3
     1  H    0.000000
     2  H    1.507943   0.000000
     3  O    0.962689   0.967107   0.000000
 Stoichiometry    H2O
 Framework group  CS[SG(H2O)]
 Deg. of freedom     3
 Full point group                 CS      NOp   2
 Largest Abelian subgroup         CS      NOp   2
 Largest concise Abelian subgroup C1      NOp   1
                         Standard orientation:                         
 ---------------------------------------------------------------------
 Center     Atomic      Atomic             Coordinates (Angstroms)
 Number     Number       Type             X           Y           Z
 ---------------------------------------------------------------------
      1          1           0        0.753963   -0.478164    0.000000
      2          1           0       -0.753963   -0.485244    0.000000
      3          8           0        0.000000    0.120426    0.000000
 ---------------------------------------------------------------------
 Rotational constants (GHZ):    778.7338338    441.0416060    281.5715168
 Standard basis: 6-311++G(2df,2pd) (5D, 7F)
 There are    51 symmetry adapted cartesian basis functions of A'  symmetry.
 There are    20 symmetry adapted cartesian basis functions of A"  symmetry.
 There are    45 symmetry adapted basis functions of A'  symmetry.
 There are    19 symmetry adapted basis functions of A"  symmetry.
    64 basis functions,    88 primitive gaussians,    71 cartesian basis functions
     5 alpha electrons        5 beta electrons
       nuclear repulsion energy         9.1258194397 Hartrees.
 NAtoms=    3 NActive=    3 NUniq=    3 SFac= 1.00D+00 NAtFMM=   60 NAOKFM=F Big=F
 Integral buffers will be    131072 words long.
 Raffenetti 2 integral format.
 Two-electron integral symmetry is turned on.
 One-electron integrals computed using PRISM.
 NBasis=    64 RedAO= T EigKep=  2.19D-03  NBF=    45    19
 NBsUse=    64 1.00D-06 EigRej= -1.00D+00 NBFU=    45    19
 Initial guess from the checkpoint file:  "/tmp/allouche/26239/Gau-11739.chk"
 B after Tr=     0.000000    0.000000    0.000000
         Rot=    0.999228    0.000000    0.000000    0.039291 Ang=   4.50 deg.
 Initial guess orbital symmetries:
       Occupied  (A') (A') (A') (A') (A")
       Virtual   (A') (A') (A') (A') (A') (A') (A') (A') (A') (A')
                 (A') (A') (A') (A') (A') (A') (A') (A') (A') (A')
                 (A') (A') (A') (A') (A') (A') (A') (A') (A') (A')
                 (A') (A') (A') (A') (A') (A') (A') (A') (A') (A')
                 (A') (A") (A") (A") (A") (A") (A") (A") (A") (A")
                 (A") (A") (A") (A") (A") (A") (A") (A") (A")
 ExpMin= 3.60D-02 ExpMax= 8.59D+03 ExpMxC= 1.30D+03 IAcc=3 IRadAn=         5 AccDes= 0.00D+00
 Harris functional with IExCor=  402 and IRadAn=       5 diagonalized for initial guess.
 HarFok:  IExCor=  402 AccDes= 0.00D+00 IRadAn=         5 IDoV= 1 UseB2=F ITyADJ=14
 ICtDFT=  3500011 ScaDFX=  1.000000  1.000000  1.000000  1.000000
 FoFCou: FMM=F IPFlag=           0 FMFlag=      100000 FMFlg1=           0
         NFxFlg=           0 DoJE=T BraDBF=F KetDBF=T FulRan=T
         wScrn=  0.000000 ICntrl=     500 IOpCl=  0 I1Cent=   200000004 NGrid=           0
         NMat0=    1 NMatS0=      1 NMatT0=    0 NMatD0=    1 NMtDS0=    0 NMtDT0=    0
 Petite list used in FoFCou.
 Keep R1 ints in memory in symmetry-blocked form, NReq=4161973.
 Requested convergence on RMS density matrix=1.00D-08 within 128 cycles.
 Requested convergence on MAX density matrix=1.00D-06.
 Requested convergence on             energy=1.00D-06.
 No special actions if energy rises.
 SCF Done:  E(RB3LYP) =  -76.4633846358     A.U. after    8 cycles
            NFock=  8  Conv=0.48D-08     -V/T= 2.0035
 Calling FoFJK, ICntrl=      2127 FMM=F ISym2X=1 I1Cent= 0 IOpClX= 0 NMat=1 NMatS=1 NMatT=0.
 ***** Axes restored to original set *****
 -------------------------------------------------------------------
 Center     Atomic                   Forces (Hartrees/Bohr)
 Number     Number              X              Y              Z
 -------------------------------------------------------------------
      1        1           0.001610888   -0.000374390    0.003012958
      2        1           0.002585987    0.000806801    0.005282619
      3        8          -0.004196875   -0.000432411   -0.008295577
 -------------------------------------------------------------------
 Cartesian Forces:  Max     0.008295577 RMS     0.003853926

 GradGradGradGradGradGradGradGradGradGradGradGradGradGradGradGradGradGrad
 Berny optimization.
 Using GEDIIS/GDIIS optimizer.
 FormGI is forming the generalized inverse of G from B-inverse, IUseBI=4.
 Internal  Forces:  Max     0.006195015 RMS     0.004558782
 Search for a local minimum.
 Step number   2 out of a maximum of   20
 All quantities printed in internal units (Hartrees-Bohrs-Radians)
 Mixed Optimization -- RFO/linear search
 Update second derivatives using D2CorX and points    1    2
 DE= -1.02D-02 DEPred=-9.00D-03 R= 1.13D+00
 TightC=F SS=  1.41D+00  RLast= 2.13D-01 DXNew= 5.0454D-01 6.4033D-01
 Trust test= 1.13D+00 RLast= 2.13D-01 DXMaxT set to 5.05D-01
 The second derivative matrix:
                          R1        R2        A1
           R1           0.56132
           R2          -0.00300   0.35409
           A1          -0.00249   0.02901   0.16252
 ITU=  1  0
 Use linear search instead of GDIIS.
     Eigenvalues ---    0.15821   0.35833   0.56139
 RFO step:  Lambda=-2.63373228D-04 EMin= 1.58212109D-01
 Quartic linear search produced a step of  0.04370.
 Iteration  1 RMS(Cart)=  0.02143694 RMS(Int)=  0.00031836
 Iteration  2 RMS(Cart)=  0.00030391 RMS(Int)=  0.00000001
 Iteration  3 RMS(Cart)=  0.00000001 RMS(Int)=  0.00000000
 ClnCor:  largest displacement from symmetrization is 1.24D-15 for atom     1.
 Variable       Old X    -DE/DX   Delta X   Delta X   Delta X     New X
                                 (Linear)    (Quad)   (Total)
    R1        1.81922  -0.00047   0.00045  -0.00131  -0.00085   1.81837
    R2        1.82757  -0.00487  -0.00932  -0.00353  -0.01284   1.81472
    A1        1.79381   0.00620  -0.00005   0.04043   0.04038   1.83419
         Item               Value     Threshold  Converged?
 Maximum Force            0.006195     0.000450     NO 
 RMS     Force            0.004559     0.000300     NO 
 Maximum Displacement     0.019794     0.001800     NO 
 RMS     Displacement     0.021290     0.001200     NO 
 Predicted change in Energy=-1.662320D-04
 GradGradGradGradGradGradGradGradGradGradGradGradGradGradGradGradGradGrad

                          Input orientation:                          
 ---------------------------------------------------------------------
 Center     Atomic      Atomic             Coordinates (Angstroms)
 Number     Number       Type             X           Y           Z
 ---------------------------------------------------------------------
      1          1           0        0.595920   -0.434223   -0.200436
      2          1           0        0.129373    0.940235   -0.672095
      3          8           0        0.574707    0.493989    0.052295
 ---------------------------------------------------------------------
                    Distance matrix (angstroms):
                    1          2          3
     1  H    0.000000
     2  H    1.526192   0.000000
     3  O    0.962237   0.960311   0.000000
 Stoichiometry    H2O
 Framework group  CS[SG(H2O)]
 Deg. of freedom     3
 Full point group                 CS      NOp   2
 Largest Abelian subgroup         CS      NOp   2
 Largest concise Abelian subgroup C1      NOp   1
                         Standard orientation:                         
 ---------------------------------------------------------------------
 Center     Atomic      Atomic             Coordinates (Angstroms)
 Number     Number       Type             X           Y           Z
 ---------------------------------------------------------------------
      1          1           0        0.763094   -0.469248    0.000000
      2          1           0       -0.763094   -0.466080    0.000000
      3          8           0        0.000000    0.116916    0.000000
 ---------------------------------------------------------------------
 Rotational constants (GHZ):    826.1590091    430.5678850    283.0507876
 Standard basis: 6-311++G(2df,2pd) (5D, 7F)
 There are    51 symmetry adapted cartesian basis functions of A'  symmetry.
 There are    20 symmetry adapted cartesian basis functions of A"  symmetry.
 There are    45 symmetry adapted basis functions of A'  symmetry.
 There are    19 symmetry adapted basis functions of A"  symmetry.
    64 basis functions,    88 primitive gaussians,    71 cartesian basis functions
     5 alpha electrons        5 beta electrons
       nuclear repulsion energy         9.1546679116 Hartrees.
 NAtoms=    3 NActive=    3 NUniq=    3 SFac= 1.00D+00 NAtFMM=   60 NAOKFM=F Big=F
 Integral buffers will be    131072 words long.
 Raffenetti 2 integral format.
 Two-electron integral symmetry is turned on.
 One-electron integrals computed using PRISM.
 NBasis=    64 RedAO= T EigKep=  2.16D-03  NBF=    45    19
 NBsUse=    64 1.00D-06 EigRej= -1.00D+00 NBFU=    45    19
 Initial guess from the checkpoint file:  "/tmp/allouche/26239/Gau-11739.chk"
 B after Tr=     0.000000    0.000000    0.000000
         Rot=    0.999997    0.000000    0.000000    0.002273 Ang=   0.26 deg.
 Initial guess orbital symmetries:
       Occupied  (A') (A') (A') (A') (A")
       Virtual   (A') (A') (A') (A') (A') (A') (A') (A') (A') (A')
                 (A') (A') (A') (A') (A') (A') (A') (A') (A') (A')
                 (A') (A') (A') (A') (A') (A') (A') (A') (A') (A')
                 (A') (A') (A') (A') (A') (A') (A') (A') (A') (A')
                 (A') (A") (A") (A") (A") (A") (A") (A") (A") (A")
                 (A") (A") (A") (A") (A") (A") (A") (A") (A")
 Keep R1 ints in memory in symmetry-blocked form, NReq=4161973.
 Requested convergence on RMS density matrix=1.00D-08 within 128 cycles.
 Requested convergence on MAX density matrix=1.00D-06.
 Requested convergence on             energy=1.00D-06.
 No special actions if energy rises.
 SCF Done:  E(RB3LYP) =  -76.4635392120     A.U. after    8 cycles
            NFock=  8  Conv=0.11D-08     -V/T= 2.0034
 Calling FoFJK, ICntrl=      2127 FMM=F ISym2X=1 I1Cent= 0 IOpClX= 0 NMat=1 NMatS=1 NMatT=0.
 ***** Axes restored to original set *****
 -------------------------------------------------------------------
 Center     Atomic                   Forces (Hartrees/Bohr)
 Number     Number              X              Y              Z
 -------------------------------------------------------------------
      1        1          -0.000001788    0.001248839    0.000392039
      2        1          -0.000302553    0.000358755   -0.000474537
      3        8           0.000304341   -0.001607594    0.000082497
 -------------------------------------------------------------------
 Cartesian Forces:  Max     0.001607594 RMS     0.000733524

 GradGradGradGradGradGradGradGradGradGradGradGradGradGradGradGradGradGrad
 Berny optimization.
 Using GEDIIS/GDIIS optimizer.
 FormGI is forming the generalized inverse of G from B-inverse, IUseBI=4.
 Internal  Forces:  Max     0.001307648 RMS     0.000849076
 Search for a local minimum.
 Step number   3 out of a maximum of   20
 All quantities printed in internal units (Hartrees-Bohrs-Radians)
 Mixed Optimization -- En-DIIS/RFO-DIIS
 Update second derivatives using D2CorX and points    1    2    3
 DE= -1.55D-04 DEPred=-1.66D-04 R= 9.30D-01
 TightC=F SS=  1.41D+00  RLast= 4.24D-02 DXNew= 8.4853D-01 1.2714D-01
 Trust test= 9.30D-01 RLast= 4.24D-02 DXMaxT set to 5.05D-01
 The second derivative matrix:
                          R1        R2        A1
           R1           0.56375
           R2          -0.02925   0.41956
           A1           0.02339  -0.00433   0.14997
 ITU=  1  1  0
 Use linear search instead of GDIIS.
     Eigenvalues ---    0.14863   0.41385   0.57080
 RFO step:  Lambda=-4.02812440D-06 EMin= 1.48629629D-01
 Quartic linear search produced a step of -0.01033.
 Iteration  1 RMS(Cart)=  0.00114457 RMS(Int)=  0.00000062
 Iteration  2 RMS(Cart)=  0.00000041 RMS(Int)=  0.00000000
 ClnCor:  largest displacement from symmetrization is 1.64D-15 for atom     2.
 Variable       Old X    -DE/DX   Delta X   Delta X   Delta X     New X
                                 (Linear)    (Quad)   (Total)
    R1        1.81837  -0.00131   0.00001  -0.00230  -0.00229   1.81608
    R2        1.81472   0.00066   0.00013   0.00130   0.00144   1.81616
    A1        1.83419   0.00010  -0.00042   0.00150   0.00109   1.83527
         Item               Value     Threshold  Converged?
 Maximum Force            0.001308     0.000450     NO 
 RMS     Force            0.000849     0.000300     NO 
 Maximum Displacement     0.001464     0.001800     YES
 RMS     Displacement     0.001145     0.001200     YES
 Predicted change in Energy=-2.031283D-06
 GradGradGradGradGradGradGradGradGradGradGradGradGradGradGradGradGradGrad

                          Input orientation:                          
 ---------------------------------------------------------------------
 Center     Atomic      Atomic             Coordinates (Angstroms)
 Number     Number       Type             X           Y           Z
 ---------------------------------------------------------------------
      1          1           0        0.596020   -0.433851   -0.200125
      2          1           0        0.129196    0.940637   -0.672312
      3          8           0        0.574785    0.493215    0.052202
 ---------------------------------------------------------------------
                    Distance matrix (angstroms):
                    1          2          3
     1  H    0.000000
     2  H    1.526467   0.000000
     3  O    0.961026   0.961071   0.000000
 Stoichiometry    H2O
 Framework group  CS[SG(H2O)]
 Deg. of freedom     3
 Full point group                 CS      NOp   2
 Largest Abelian subgroup         CS      NOp   2
 Largest concise Abelian subgroup C1      NOp   1
                         Standard orientation:                         
 ---------------------------------------------------------------------
 Center     Atomic      Atomic             Coordinates (Angstroms)
 Number     Number       Type             X           Y           Z
 ---------------------------------------------------------------------
      1          1           0        0.763234   -0.467185    0.000000
      2          1           0       -0.763234   -0.467260    0.000000
      3          8           0        0.000000    0.116806    0.000000
 ---------------------------------------------------------------------
 Rotational constants (GHZ):    827.7135903    430.4146926    283.1667449
 Standard basis: 6-311++G(2df,2pd) (5D, 7F)
 There are    51 symmetry adapted cartesian basis functions of A'  symmetry.
 There are    20 symmetry adapted cartesian basis functions of A"  symmetry.
 There are    45 symmetry adapted basis functions of A'  symmetry.
 There are    19 symmetry adapted basis functions of A"  symmetry.
    64 basis functions,    88 primitive gaussians,    71 cartesian basis functions
     5 alpha electrons        5 beta electrons
       nuclear repulsion energy         9.1566656502 Hartrees.
 NAtoms=    3 NActive=    3 NUniq=    3 SFac= 1.00D+00 NAtFMM=   60 NAOKFM=F Big=F
 Integral buffers will be    131072 words long.
 Raffenetti 2 integral format.
 Two-electron integral symmetry is turned on.
 One-electron integrals computed using PRISM.
 NBasis=    64 RedAO= T EigKep=  2.16D-03  NBF=    45    19
 NBsUse=    64 1.00D-06 EigRej= -1.00D+00 NBFU=    45    19
 Initial guess from the checkpoint file:  "/tmp/allouche/26239/Gau-11739.chk"
 B after Tr=     0.000000    0.000000    0.000000
         Rot=    1.000000    0.000000    0.000000   -0.000723 Ang=  -0.08 deg.
 Initial guess orbital symmetries:
       Occupied  (A') (A') (A') (A') (A")
       Virtual   (A') (A') (A') (A') (A') (A') (A') (A') (A') (A')
                 (A') (A') (A') (A') (A') (A') (A') (A') (A') (A')
                 (A') (A') (A') (A') (A') (A') (A') (A') (A') (A')
                 (A') (A') (A') (A') (A') (A') (A') (A') (A') (A')
                 (A') (A") (A") (A") (A") (A") (A") (A") (A") (A")
                 (A") (A") (A") (A") (A") (A") (A") (A") (A")
 Keep R1 ints in memory in symmetry-blocked form, NReq=4161973.
 Requested convergence on RMS density matrix=1.00D-08 within 128 cycles.
 Requested convergence on MAX density matrix=1.00D-06.
 Requested convergence on             energy=1.00D-06.
 No special actions if energy rises.
 SCF Done:  E(RB3LYP) =  -76.4635412338     A.U. after    6 cycles
            NFock=  6  Conv=0.50D-08     -V/T= 2.0034
 Calling FoFJK, ICntrl=      2127 FMM=F ISym2X=1 I1Cent= 0 IOpClX= 0 NMat=1 NMatS=1 NMatT=0.
 ***** Axes restored to original set *****
 -------------------------------------------------------------------
 Center     Atomic                   Forces (Hartrees/Bohr)
 Number     Number              X              Y              Z
 -------------------------------------------------------------------
      1        1          -0.000013422    0.000108251    0.000008191
      2        1           0.000068891   -0.000091938    0.000104805
      3        8          -0.000055469   -0.000016313   -0.000112996
 -------------------------------------------------------------------
 Cartesian Forces:  Max     0.000112996 RMS     0.000076201

 GradGradGradGradGradGradGradGradGradGradGradGradGradGradGradGradGradGrad
 Berny optimization.
 Using GEDIIS/GDIIS optimizer.
 FormGI is forming the generalized inverse of G from B-inverse, IUseBI=4.
 Internal  Forces:  Max     0.000153750 RMS     0.000110836
 Search for a local minimum.
 Step number   4 out of a maximum of   20
 All quantities printed in internal units (Hartrees-Bohrs-Radians)
 Mixed Optimization -- En-DIIS/RFO-DIIS
 Swapping is turned off.
 Update second derivatives using D2CorX and points    1    2    3    4
 DE= -2.02D-06 DEPred=-2.03D-06 R= 9.95D-01
 TightC=F SS=  1.41D+00  RLast= 2.91D-03 DXNew= 8.4853D-01 8.7393D-03
 Trust test= 9.95D-01 RLast= 2.91D-03 DXMaxT set to 5.05D-01
 The second derivative matrix:
                          R1        R2        A1
           R1           0.49765
           R2          -0.05528   0.47309
           A1           0.01684   0.01141   0.15480
 ITU=  1  1  1  0
     Eigenvalues ---    0.15334   0.43012   0.54209
 En-DIIS/RFO-DIIS IScMMF=        0 using points:     4    3
 RFO step:  Lambda=-5.70537459D-08.
 DidBck=F Rises=F RFO-DIIS coefs:    0.99459    0.00541
 Iteration  1 RMS(Cart)=  0.00029381 RMS(Int)=  0.00000002
 Iteration  2 RMS(Cart)=  0.00000002 RMS(Int)=  0.00000000
 ClnCor:  largest displacement from symmetrization is 1.18D-15 for atom     1.
 Variable       Old X    -DE/DX   Delta X   Delta X   Delta X     New X
                                 (Linear)    (Quad)   (Total)
    R1        1.81608  -0.00011   0.00001  -0.00026  -0.00025   1.81583
    R2        1.81616  -0.00015  -0.00001  -0.00034  -0.00035   1.81581
    A1        1.83527  -0.00004  -0.00001  -0.00022  -0.00022   1.83505
         Item               Value     Threshold  Converged?
 Maximum Force            0.000154     0.000450     YES
 RMS     Force            0.000111     0.000300     YES
 Maximum Displacement     0.000330     0.001800     YES
 RMS     Displacement     0.000294     0.001200     YES
 Predicted change in Energy=-4.460824D-08
 Optimization completed.
    -- Stationary point found.
                           ----------------------------
                           !   Optimized Parameters   !
                           ! (Angstroms and Degrees)  !
 --------------------------                            --------------------------
 ! Name  Definition              Value          Derivative Info.                !
 --------------------------------------------------------------------------------
 ! R1    R(1,3)                  0.961          -DE/DX =   -0.0001              !
 ! R2    R(2,3)                  0.9611         -DE/DX =   -0.0002              !
 ! A1    A(1,3,2)              105.1534         -DE/DX =    0.0                 !
 --------------------------------------------------------------------------------
 GradGradGradGradGradGradGradGradGradGradGradGradGradGradGradGradGradGrad

                          Input orientation:                          
 ---------------------------------------------------------------------
 Center     Atomic      Atomic             Coordinates (Angstroms)
 Number     Number       Type             X           Y           Z
 ---------------------------------------------------------------------
      1          1           0        0.596020   -0.433851   -0.200125
      2          1           0        0.129196    0.940637   -0.672312
      3          8           0        0.574785    0.493215    0.052202
 ---------------------------------------------------------------------
                    Distance matrix (angstroms):
                    1          2          3
     1  H    0.000000
     2  H    1.526467   0.000000
     3  O    0.961026   0.961071   0.000000
 Stoichiometry    H2O
 Framework group  CS[SG(H2O)]
 Deg. of freedom     3
 Full point group                 CS      NOp   2
 Largest Abelian subgroup         CS      NOp   2
 Largest concise Abelian subgroup C1      NOp   1
                         Standard orientation:                         
 ---------------------------------------------------------------------
 Center     Atomic      Atomic             Coordinates (Angstroms)
 Number     Number       Type             X           Y           Z
 ---------------------------------------------------------------------
      1          1           0        0.763234   -0.467185    0.000000
      2          1           0       -0.763234   -0.467260    0.000000
      3          8           0        0.000000    0.116806    0.000000
 ---------------------------------------------------------------------
 Rotational constants (GHZ):    827.7135903    430.4146926    283.1667449

 **********************************************************************

            Population analysis using the SCF density.

 **********************************************************************

 Orbital symmetries:
       Occupied  (A') (A') (A') (A') (A")
       Virtual   (A') (A') (A') (A') (A") (A') (A') (A') (A') (A')
                 (A') (A") (A") (A') (A') (A') (A") (A') (A') (A')
                 (A") (A") (A') (A') (A') (A') (A') (A") (A') (A")
                 (A') (A') (A') (A") (A") (A") (A") (A') (A') (A')
                 (A') (A') (A') (A") (A') (A') (A") (A') (A") (A")
                 (A') (A") (A") (A') (A') (A') (A') (A') (A')
 The electronic state is 1-A'.
 Alpha  occ. eigenvalues --  -19.13357  -1.02118  -0.54147  -0.39857  -0.32415
 Alpha virt. eigenvalues --   -0.02207   0.02937   0.13801   0.15111   0.15113
 Alpha virt. eigenvalues --    0.15436   0.21605   0.22535   0.49395   0.53070
 Alpha virt. eigenvalues --    0.60140   0.65065   0.73136   0.82874   0.86443
 Alpha virt. eigenvalues --    0.98480   1.00624   1.21810   1.34238   1.36781
 Alpha virt. eigenvalues --    1.74279   1.77143   1.88094   2.06689   2.17350
 Alpha virt. eigenvalues --    2.35305   2.70132   2.89728   3.03931   3.15720
 Alpha virt. eigenvalues --    3.21882   3.53027   3.56588   3.66094   3.66549
 Alpha virt. eigenvalues --    3.72316   3.83819   3.90842   3.94225   4.16803
 Alpha virt. eigenvalues --    4.21484   4.43373   4.69819   5.03000   5.40566
 Alpha virt. eigenvalues --    5.47652   5.49078   6.27997   6.45793   6.58340
 Alpha virt. eigenvalues --    6.69162   6.92067   6.95562   7.03026   7.14865
 Alpha virt. eigenvalues --    7.40325   7.57427   8.25985  50.48101
          Condensed to atoms (all electrons):
               1          2          3
     1  H    0.557024  -0.008480   0.265856
     2  H   -0.008480   0.557007   0.265857
     3  O    0.265856   0.265857   7.839500
 Mulliken charges:
               1
     1  H    0.185599
     2  H    0.185615
     3  O   -0.371214
 Sum of Mulliken charges =   0.00000
 Mulliken charges with hydrogens summed into heavy atoms:
               1
     3  O    0.000000
 Electronic spatial extent (au):  <R**2>=             20.0251
 Charge=             -0.00000000000001 electrons
 Dipole moment (field-independent basis, Debye):
    X=              0.00002457759523    Y=             -1.94844460358328    Z=              0.00000000000000  Tot=              1.94844460373829
 Quadrupole moment (field-independent basis, Debye-Ang):
   XX=             -4.43506667460100   YY=             -6.50148246817270   ZZ=             -7.78058230451762
   XY=              0.00012440713714   XZ=              0.00000000000000   YZ=              0.00000000000000
 Traceless Quadrupole moment (field-independent basis, Debye-Ang):
   XX=              1.80397714116277   YY=             -0.26243865240893   ZZ=             -1.54153848875384
   XY=              0.00012440713714   XZ=              0.00000000000000   YZ=              0.00000000000000
 Octapole moment (field-independent basis, Debye-Ang**2):
  XXX=              0.00007487544523  YYY=             -1.19967742923977  ZZZ=              0.00000000000000  XYY=             -0.00007805548195
  XXY=             -1.34090206391554  XXZ=              0.00000000000000  XZZ=              0.00002778537521  YZZ=             -0.33099551337681
  YYZ=              0.00000000000000  XYZ=              0.00000000000000
 Hexadecapole moment (field-independent basis, Debye-Ang**3):
 XXXX=             -6.58060406983355 YYYY=             -8.03843192381581 ZZZZ=             -7.53386316594212 XXXY=             -0.00001044692267
 XXXZ=              0.00000000000000 YYYX=             -0.00000195472920 YYYZ=              0.00000000000000 ZZZX=              0.00000000000000
 ZZZY=              0.00000000000000 XXYY=             -2.10864980402046 XXZZ=             -2.68595893981353 YYZZ=             -2.65102720053005
 XXYZ=              0.00000000000000 YYXZ=              0.00000000000000 ZZXY=             -0.00003286054244
 N-N= 9.156665650205D+00 E-N=-1.991864959485D+02  KE= 7.620570530410D+01
 Symmetry A'   KE= 7.167809906515D+01
 Symmetry A"   KE= 4.527606238945D+00
 1\1\GINC-ILMFIXE086\FOpt\RB3LYP\6-311++G(2df,2pd)\H2O1\ALLOUCHE\14-Feb
 -2018\0\\# B3LYP/6-311++G(2df,2pd) Opt Freq\\Gaussian file generated b
 y cchemi\\0,1\H,0.5960195157,-0.433850734,-0.200124939\H,0.1291955304,
 0.940636996,-0.6723123921\O,0.5747849539,0.493214738,0.0522023311\\Ver
 sion=EM64L-G09RevD.01\State=1-A'\HF=-76.4635412\RMSD=5.005e-09\RMSF=7.
 620e-05\Dipole=-0.2784946,-0.3147911,-0.6410833\Quadrupole=-0.7879584,
 1.0309581,-0.2429997,-0.5430579,0.5242223,-0.3662071\PG=CS [SG(H2O1)]\
 \@


 A successful marriage requires falling in love
 many times, always with the same person.
                           -- Mignon McLaughlin
 Job cpu time:       0 days  0 hours  0 minutes 17.3 seconds.
 File lengths (MBytes):  RWF=      5 Int=      0 D2E=      0 Chk=      1 Scr=      1
 Normal termination of Gaussian 09 at Wed Feb 14 10:21:19 2018.
 Link1:  Proceeding to internal job step number  2.
 ----------------------------------------------------------------------
 #N Geom=AllCheck Guess=TCheck SCRF=Check GenChk RB3LYP/6-311++G(2df,2p
 d) Freq
 ----------------------------------------------------------------------
 1/10=4,29=7,30=1,38=1,40=1/1,3;
 2/12=2,40=1/2;
 3/5=4,6=6,7=1414,11=2,14=-4,16=1,25=1,30=1,70=2,71=2,74=-5,116=1,140=1/1,2,3;
 4/5=101/1;
 5/5=2,98=1/2;
 8/6=4,10=90,11=11/1;
 11/6=1,8=1,9=11,15=111,16=1/1,2,10;
 10/6=1/2;
 6/7=2,8=2,9=2,10=2,18=1,28=1/1;
 7/8=1,10=1,25=1/1,2,3,16;
 1/10=4,30=1/3;
 99//99;
 Structure from the checkpoint file:  "/tmp/allouche/26239/Gau-11739.chk"
 ---------------------------------
 Gaussian file generated by cchemi
 ---------------------------------
 Charge =  0 Multiplicity = 1
 Redundant internal coordinates found in file.
 H,0,0.5960195157,-0.433850734,-0.200124939
 H,0,0.1291955304,0.940636996,-0.6723123921
 O,0,0.5747849539,0.493214738,0.0522023311
 Recover connectivity data from disk.

 GradGradGradGradGradGradGradGradGradGradGradGradGradGradGradGradGradGrad
 Berny optimization.
 Initialization pass.
                           ----------------------------
                           !    Initial Parameters    !
                           ! (Angstroms and Degrees)  !
 --------------------------                            --------------------------
 ! Name  Definition              Value          Derivative Info.                !
 --------------------------------------------------------------------------------
 ! R1    R(1,3)                  0.961          calculate D2E/DX2 analytically  !
 ! R2    R(2,3)                  0.9611         calculate D2E/DX2 analytically  !
 ! A1    A(1,3,2)              105.1534         calculate D2E/DX2 analytically  !
 --------------------------------------------------------------------------------
 Trust Radius=3.00D-01 FncErr=1.00D-07 GrdErr=1.00D-07
 Number of steps in this run=      2 maximum allowed number of steps=      2.
 GradGradGradGradGradGradGradGradGradGradGradGradGradGradGradGradGradGrad

                          Input orientation:                          
 ---------------------------------------------------------------------
 Center     Atomic      Atomic             Coordinates (Angstroms)
 Number     Number       Type             X           Y           Z
 ---------------------------------------------------------------------
      1          1           0        0.596020   -0.433851   -0.200125
      2          1           0        0.129196    0.940637   -0.672312
      3          8           0        0.574785    0.493215    0.052202
 ---------------------------------------------------------------------
                    Distance matrix (angstroms):
                    1          2          3
     1  H    0.000000
     2  H    1.526467   0.000000
     3  O    0.961026   0.961071   0.000000
 Stoichiometry    H2O
 Framework group  CS[SG(H2O)]
 Deg. of freedom     3
 Full point group                 CS      NOp   2
 Largest Abelian subgroup         CS      NOp   2
 Largest concise Abelian subgroup C1      NOp   1
                         Standard orientation:                         
 ---------------------------------------------------------------------
 Center     Atomic      Atomic             Coordinates (Angstroms)
 Number     Number       Type             X           Y           Z
 ---------------------------------------------------------------------
      1          1           0        0.763234   -0.467185    0.000000
      2          1           0       -0.763234   -0.467260    0.000000
      3          8           0        0.000000    0.116806    0.000000
 ---------------------------------------------------------------------
 Rotational constants (GHZ):    827.7135903    430.4146926    283.1667449
 Standard basis: 6-311++G(2df,2pd) (5D, 7F)
 There are    51 symmetry adapted cartesian basis functions of A'  symmetry.
 There are    20 symmetry adapted cartesian basis functions of A"  symmetry.
 There are    45 symmetry adapted basis functions of A'  symmetry.
 There are    19 symmetry adapted basis functions of A"  symmetry.
    64 basis functions,    88 primitive gaussians,    71 cartesian basis functions
     5 alpha electrons        5 beta electrons
       nuclear repulsion energy         9.1566656502 Hartrees.
 NAtoms=    3 NActive=    3 NUniq=    3 SFac= 1.00D+00 NAtFMM=   60 NAOKFM=F Big=F
 Integral buffers will be    131072 words long.
 Raffenetti 2 integral format.
 Two-electron integral symmetry is turned on.
 One-electron integrals computed using PRISM.
 NBasis=    64 RedAO= T EigKep=  2.16D-03  NBF=    45    19
 NBsUse=    64 1.00D-06 EigRej= -1.00D+00 NBFU=    45    19
 Initial guess from the checkpoint file:  "/tmp/allouche/26239/Gau-11739.chk"
 B after Tr=     0.000000    0.000000    0.000000
         Rot=    1.000000    0.000000    0.000000    0.000000 Ang=   0.00 deg.
 Initial guess orbital symmetries:
       Occupied  (A') (A') (A') (A') (A")
       Virtual   (A') (A') (A') (A') (A") (A') (A') (A') (A') (A')
                 (A') (A") (A") (A') (A') (A') (A") (A') (A') (A')
                 (A") (A") (A') (A') (A') (A') (A') (A") (A') (A")
                 (A') (A') (A') (A") (A") (A") (A") (A') (A') (A')
                 (A') (A') (A') (A") (A') (A') (A") (A') (A") (A")
                 (A') (A") (A") (A') (A') (A') (A') (A') (A')
 Keep R1 ints in memory in symmetry-blocked form, NReq=4161973.
 Requested convergence on RMS density matrix=1.00D-08 within 128 cycles.
 Requested convergence on MAX density matrix=1.00D-06.
 Requested convergence on             energy=1.00D-06.
 No special actions if energy rises.
 SCF Done:  E(RB3LYP) =  -76.4635412338     A.U. after    1 cycles
            NFock=  1  Conv=0.70D-09     -V/T= 2.0034
 DoSCS=F DFT=T ScalE2(SS,OS)=  1.000000  1.000000
 Range of M.O.s used for correlation:     1    64
 NBasis=    64 NAE=     5 NBE=     5 NFC=     0 NFV=     0
 NROrb=     64 NOA=     5 NOB=     5 NVA=    59 NVB=    59

 **** Warning!!: The largest alpha MO coefficient is  0.11092083D+02

 Symmetrizing basis deriv contribution to polar:
 IMax=3 JMax=2 DiffMx= 0.00D+00
 G2DrvN: will do     4 centers at a time, making    1 passes.
 Calling FoFCou, ICntrl=  3107 FMM=F I1Cent=   0 AccDes= 0.00D+00.
 End of G2Drv F.D. properties file   721 does not exist.
 End of G2Drv F.D. properties file   722 does not exist.
 End of G2Drv F.D. properties file   788 does not exist.
          IDoAtm=111
          Differentiating once with respect to electric field.
                with respect to dipole field.
          Differentiating once with respect to nuclear coordinates.
 Keep R1 ints in memory in symmetry-blocked form, NReq=4137679.
          There are    12 degrees of freedom in the 1st order CPHF.  IDoFFX=6 NUNeed=     3.
     10 vectors produced by pass  0 Test12= 2.46D-15 8.33D-09 XBig12= 4.17D+00 1.29D+00.
 AX will form    10 AO Fock derivatives at one time.
      9 vectors produced by pass  1 Test12= 2.46D-15 8.33D-09 XBig12= 7.69D-01 3.82D-01.
      9 vectors produced by pass  2 Test12= 2.46D-15 8.33D-09 XBig12= 8.78D-03 3.70D-02.
      9 vectors produced by pass  3 Test12= 2.46D-15 8.33D-09 XBig12= 3.12D-05 1.90D-03.
      9 vectors produced by pass  4 Test12= 2.46D-15 8.33D-09 XBig12= 9.62D-08 8.34D-05.
      6 vectors produced by pass  5 Test12= 2.46D-15 8.33D-09 XBig12= 9.27D-11 3.71D-06.
      2 vectors produced by pass  6 Test12= 2.46D-15 8.33D-09 XBig12= 7.80D-14 8.20D-08.
 InvSVY:  IOpt=1 It=  1 EMax= 4.44D-16
 Solved reduced A of dimension    54 with    12 vectors.
 Isotropic polarizability for W=    0.000000        8.39 Bohr**3.
 End of Minotr F.D. properties file   721 does not exist.
 End of Minotr F.D. properties file   722 does not exist.
 End of Minotr F.D. properties file   788 does not exist.

 **********************************************************************

            Population analysis using the SCF density.

 **********************************************************************

 Orbital symmetries:
       Occupied  (A') (A') (A') (A') (A")
       Virtual   (A') (A') (A') (A') (A") (A') (A') (A') (A') (A')
                 (A') (A") (A") (A') (A') (A') (A") (A') (A') (A')
                 (A") (A") (A') (A') (A') (A') (A') (A") (A') (A")
                 (A') (A') (A') (A") (A") (A") (A") (A') (A') (A')
                 (A') (A') (A') (A") (A') (A') (A") (A') (A") (A")
                 (A') (A") (A") (A') (A') (A') (A') (A') (A')
 The electronic state is 1-A'.
 Alpha  occ. eigenvalues --  -19.13357  -1.02118  -0.54147  -0.39857  -0.32415
 Alpha virt. eigenvalues --   -0.02207   0.02937   0.13801   0.15111   0.15113
 Alpha virt. eigenvalues --    0.15436   0.21605   0.22535   0.49395   0.53070
 Alpha virt. eigenvalues --    0.60140   0.65065   0.73136   0.82874   0.86443
 Alpha virt. eigenvalues --    0.98480   1.00624   1.21810   1.34238   1.36781
 Alpha virt. eigenvalues --    1.74279   1.77143   1.88094   2.06689   2.17350
 Alpha virt. eigenvalues --    2.35305   2.70132   2.89728   3.03931   3.15720
 Alpha virt. eigenvalues --    3.21882   3.53027   3.56588   3.66094   3.66549
 Alpha virt. eigenvalues --    3.72316   3.83819   3.90842   3.94225   4.16803
 Alpha virt. eigenvalues --    4.21484   4.43373   4.69819   5.03000   5.40566
 Alpha virt. eigenvalues --    5.47652   5.49078   6.27997   6.45793   6.58340
 Alpha virt. eigenvalues --    6.69162   6.92067   6.95562   7.03026   7.14865
 Alpha virt. eigenvalues --    7.40325   7.57427   8.25985  50.48101
          Condensed to atoms (all electrons):
               1          2          3
     1  H    0.557024  -0.008480   0.265856
     2  H   -0.008480   0.557007   0.265857
     3  O    0.265856   0.265857   7.839500
 Mulliken charges:
               1
     1  H    0.185599
     2  H    0.185615
     3  O   -0.371214
 Sum of Mulliken charges =   0.00000
 Mulliken charges with hydrogens summed into heavy atoms:
               1
     3  O    0.000000
 APT charges:
               1
     1  H    0.263284
     2  H    0.263298
     3  O   -0.526582
 Sum of APT charges =   0.00000
 APT charges with hydrogens summed into heavy atoms:
               1
     3  O    0.000000
 Electronic spatial extent (au):  <R**2>=             20.0251
 Charge=              0.00000000000000 electrons
 Dipole moment (field-independent basis, Debye):
    X=              0.00002460493345    Y=             -1.94844433687569    Z=              0.00000000000000  Tot=              1.94844433703105
 Quadrupole moment (field-independent basis, Debye-Ang):
   XX=             -4.43506673339866   YY=             -6.50148254931190   ZZ=             -7.78058238460960
   XY=              0.00012430185086   XZ=              0.00000000000000   YZ=              0.00000000000000
 Traceless Quadrupole moment (field-independent basis, Debye-Ang):
   XX=              1.80397715570807   YY=             -0.26243866020518   ZZ=             -1.54153849550288
   XY=              0.00012430185086   XZ=              0.00000000000000   YZ=              0.00000000000000
 Octapole moment (field-independent basis, Debye-Ang**2):
  XXX=              0.00007497355224  YYY=             -1.19967734625369  ZZZ=              0.00000000000000  XYY=             -0.00007801027434
  XXY=             -1.34090202277642  XXZ=              0.00000000000000  XZZ=              0.00002779963075  YZZ=             -0.33099549320838
  YYZ=              0.00000000000000  XYZ=              0.00000000000000
 Hexadecapole moment (field-independent basis, Debye-Ang**3):
 XXXX=             -6.58060408185980 YYYY=             -8.03843215176820 ZZZZ=             -7.53386337764923 XXXY=             -0.00001061562259
 XXXZ=              0.00000000000000 YYYX=             -0.00000211815999 YYYZ=              0.00000000000000 ZZZX=              0.00000000000000
 ZZZY=              0.00000000000000 XXYY=             -2.10864986083355 XXZZ=             -2.68595898519813 YYZZ=             -2.65102727192318
 XXYZ=              0.00000000000000 YYXZ=              0.00000000000000 ZZXY=             -0.00003290749221
 N-N= 9.156665650205D+00 E-N=-1.991864956539D+02  KE= 7.620570516661D+01
 Symmetry A'   KE= 7.167809898001D+01
 Symmetry A"   KE= 4.527606186602D+00
  Exact polarizability:   8.997   0.000   8.091   0.000   0.000   8.085
 Approx polarizability:  11.367   0.000   9.951   0.000   0.000   8.733
 Calling FoFJK, ICntrl=    100127 FMM=F ISym2X=1 I1Cent= 0 IOpClX= 0 NMat=1 NMatS=1 NMatT=0.
 Full mass-weighted force constant matrix:
 Low frequencies ---  -37.4835   -0.0016   -0.0011    0.0003    3.8572   36.5342
 Low frequencies --- 1629.7477 3815.8375 3918.9508
 Diagonal vibrational polarizability:
        0.1128113       0.7525872       0.0000000
 Harmonic frequencies (cm**-1), IR intensities (KM/Mole), Raman scattering
 activities (A**4/AMU), depolarization ratios for plane and unpolarized
 incident light, reduced masses (AMU), force constants (mDyne/A),
 and normal coordinates:
                      1                      2                      3
                     A'                     A'                     A'
 Frequencies --   1629.74765043679200              3815.83751503893000              3918.95078311633800
 Red. masses --      1.08335372430763                 1.04453633325934                 1.08250544522498
 Frc consts  --      1.69535703782485                 8.96093781577106                 9.79534809238361
 IR Inten    --     72.80444298917743                 8.08253955852665                64.38065017306968
  Atom  AN      X      Y      Z        X      Y      Z        X      Y      Z
     1   1     0.424427666554   0.563351494980   0.000000000000    -0.585384597218   0.391501779145   0.000000000000     0.561893506647  -0.429783131706   0.000000000000
     2   1    -0.424425041273   0.563311681001   0.000000000000     0.588543790950   0.393977040393   0.000000000000     0.558422547714   0.427484996686   0.000000000000
     3   8    -0.000000165417  -0.070990022928   0.000000000000    -0.000199057926  -0.049492306660   0.000000000000    -0.070590096562   0.000144803399   0.000000000000

 -------------------
 - Thermochemistry -
 -------------------
 Temperature   298.150 Kelvin.  Pressure   1.00000 Atm.
 Atom     1 has atomic number  1 and mass   1.00783
 Atom     2 has atomic number  1 and mass   1.00783
 Atom     3 has atomic number  8 and mass  15.99491
 Molecular mass:    18.01056 amu.
 Principal axes and moments of inertia in atomic units:
                           1         2         3
     Eigenvalues --     2.18039   4.19303   6.37342
           X            1.00000  -0.00010   0.00000
           Y            0.00010   1.00000   0.00000
           Z            0.00000   0.00000   1.00000
 This molecule is an asymmetric top.
 Rotational symmetry number  1.
 Rotational temperatures (Kelvin)     39.72394    20.65662    13.58984
 Rotational constants (GHZ):         827.71359   430.41469   283.16674
 Zero-point vibrational energy      56012.4 (Joules/Mol)
                                   13.38728 (Kcal/Mol)
 Vibrational temperatures:   2344.84  5490.13  5638.49
          (Kelvin)
 
 Zero-point correction=                           0.021334 (Hartree/Particle)
 Thermal correction to Energy=                    0.024169
 Thermal correction to Enthalpy=                  0.025114
 Thermal correction to Gibbs Free Energy=         0.003040
 Sum of electronic and zero-point Energies=            -76.442207
 Sum of electronic and thermal Energies=               -76.439372
 Sum of electronic and thermal Enthalpies=             -76.438428
 Sum of electronic and thermal Free Energies=          -76.460501
 
                     E (Thermal)             CV                S
                      KCal/Mol        Cal/Mol-Kelvin    Cal/Mol-Kelvin
 Total                   15.167              6.009             46.457
 Electronic               0.000              0.000              0.000
 Translational            0.889              2.981             34.608
 Rotational               0.889              2.981             11.842
 Vibrational             13.389              0.047              0.007
                       Q            Log10(Q)             Ln(Q)
 Total Bot       0.399528D-01         -1.398453         -3.220056
 Total V=0       0.259703D+09          8.414477         19.375050
 Vib (Bot)       0.153899D-09         -9.812763        -22.594722
 Vib (V=0)       0.100038D+01          0.000167          0.000384
 Electronic      0.100000D+01          0.000000          0.000000
 Translational   0.300432D+07          6.477746         14.915562
 Rotational      0.864100D+02          1.936564          4.459104
 ***** Axes restored to original set *****
 -------------------------------------------------------------------
 Center     Atomic                   Forces (Hartrees/Bohr)
 Number     Number              X              Y              Z
 -------------------------------------------------------------------
      1        1          -0.000013422    0.000108240    0.000008188
      2        1           0.000068886   -0.000091931    0.000104797
      3        8          -0.000055464   -0.000016309   -0.000112985
 -------------------------------------------------------------------
 Cartesian Forces:  Max     0.000112985 RMS     0.000076194
 FormGI is forming the generalized inverse of G from B-inverse, IUseBI=4.

 GradGradGradGradGradGradGradGradGradGradGradGradGradGradGradGradGradGrad
 Berny optimization.
 Internal  Forces:  Max     0.000153737 RMS     0.000110827
 Search for a local minimum.
 Step number   1 out of a maximum of    2
 All quantities printed in internal units (Hartrees-Bohrs-Radians)
 Second derivative matrix not updated -- analytic derivatives used.
 The second derivative matrix:
                          R1        R2        A1
           R1           0.53755
           R2          -0.00510   0.53738
           A1           0.03010   0.03010   0.15805
 ITU=  0
     Eigenvalues ---    0.15327   0.53714   0.54257
 Angle between quadratic step and forces=  15.14 degrees.
 Linear search not attempted -- first point.
 Iteration  1 RMS(Cart)=  0.00023387 RMS(Int)=  0.00000001
 Iteration  2 RMS(Cart)=  0.00000001 RMS(Int)=  0.00000000
 ClnCor:  largest displacement from symmetrization is 1.91D-15 for atom     1.
 Variable       Old X    -DE/DX   Delta X   Delta X   Delta X     New X
                                 (Linear)    (Quad)   (Total)
    R1        1.81608  -0.00011   0.00000  -0.00019  -0.00019   1.81588
    R2        1.81616  -0.00015   0.00000  -0.00028  -0.00028   1.81588
    A1        1.83527  -0.00004   0.00000  -0.00018  -0.00018   1.83509
         Item               Value     Threshold  Converged?
 Maximum Force            0.000154     0.000450     YES
 RMS     Force            0.000111     0.000300     YES
 Maximum Displacement     0.000264     0.001800     YES
 RMS     Displacement     0.000234     0.001200     YES
 Predicted change in Energy=-3.537030D-08
 Optimization completed.
    -- Stationary point found.
                           ----------------------------
                           !   Optimized Parameters   !
                           ! (Angstroms and Degrees)  !
 --------------------------                            --------------------------
 ! Name  Definition              Value          Derivative Info.                !
 --------------------------------------------------------------------------------
 ! R1    R(1,3)                  0.961          -DE/DX =   -0.0001              !
 ! R2    R(2,3)                  0.9611         -DE/DX =   -0.0002              !
 ! A1    A(1,3,2)              105.1534         -DE/DX =    0.0                 !
 --------------------------------------------------------------------------------
 GradGradGradGradGradGradGradGradGradGradGradGradGradGradGradGradGradGrad

 1\1\GINC-ILMFIXE086\Freq\RB3LYP\6-311++G(2df,2pd)\H2O1\ALLOUCHE\14-Feb
 -2018\0\\#N Geom=AllCheck Guess=TCheck SCRF=Check GenChk RB3LYP/6-311+
 +G(2df,2pd) Freq\\Gaussian file generated by cchemi\\0,1\H,0.596019515
 7,-0.433850734,-0.200124939\H,0.1291955304,0.940636996,-0.6723123921\O
 ,0.5747849539,0.493214738,0.0522023311\\Version=EM64L-G09RevD.01\State
 =1-A'\HF=-76.4635412\RMSD=6.970e-10\RMSF=7.619e-05\ZeroPoint=0.021334\
 Thermal=0.0241694\Dipole=-0.2784945,-0.3147911,-0.6410832\DipoleDeriv=
 0.3316509,-0.0145955,-0.0350371,-0.0107323,0.2003616,-0.0673987,-0.033
 8137,-0.0749075,0.2578395,0.3032655,0.0150054,-0.0808297,0.0111391,0.2
 94871,0.0050529,-0.0820544,0.0125697,0.1917588,-0.6349163,-0.0004099,0
 .1158667,-0.0004068,-0.4952326,0.0623458,0.1158681,0.0623378,-0.449598
 3\Polar=8.1708165,-0.2503613,8.8257352,0.0882827,-0.2519678,8.1764319\
 PG=CS [SG(H2O1)]\NImag=0\\0.01137195,-0.02413430,0.50964977,0.01453973
 ,0.11450482,0.06448993,-0.00121125,-0.00332526,-0.00345346,0.11444584,
 0.02379601,-0.02265083,0.03907781,-0.11759707,0.16651216,0.00513599,-0
 .01364530,0.00568622,0.18526250,-0.17586652,0.30443487,-0.01016070,0.0
 2745956,-0.01108626,-0.11323458,0.09380107,-0.19039849,0.12339528,0.00
 033830,-0.48699894,-0.15358263,0.12092233,-0.14386133,0.18951182,-0.12
 126063,0.63086028,-0.01967571,-0.10085952,-0.07017615,-0.18180904,0.13
 678872,-0.31012108,0.20148475,-0.03592919,0.38029723\\0.00001342,-0.00
 010824,-0.00000819,-0.00006889,0.00009193,-0.00010480,0.00005546,0.000
 01631,0.00011299\\\@


 THE BEST WAY TO CONVINCE A FOOL THAT HE IS WRONG 
 IS TO LET HIM HAVE HIS OWN WAY.

                                         JOSH BILLINGS
 Job cpu time:       0 days  0 hours  0 minutes 13.8 seconds.
 File lengths (MBytes):  RWF=      5 Int=      0 D2E=      0 Chk=      1 Scr=      1
 Normal termination of Gaussian 09 at Wed Feb 14 10:21:33 2018.
