 Entering Gaussian System, Link 0=/opt/local/Softwares/G09DSrc-Corr5/g09/g09
 Initial command:
 /opt/local/Softwares/G09DSrc-Corr5/g09/l1.exe "/tmp/allouche/18995/Gau-724.inp" -scrdir="/tmp/allouche/18995/"
 Entering Link 1 = /opt/local/Softwares/G09DSrc-Corr5/g09/l1.exe PID=       726.
  
 Copyright (c) 1988,1990,1992,1993,1995,1998,2003,2009,2013,
            Gaussian, Inc.  All Rights Reserved.
  
 This is part of the Gaussian(R) 09 program.  It is based on
 the Gaussian(R) 03 system (copyright 2003, Gaussian, Inc.),
 the Gaussian(R) 98 system (copyright 1998, Gaussian, Inc.),
 the Gaussian(R) 94 system (copyright 1995, Gaussian, Inc.),
 the Gaussian 92(TM) system (copyright 1992, Gaussian, Inc.),
 the Gaussian 90(TM) system (copyright 1990, Gaussian, Inc.),
 the Gaussian 88(TM) system (copyright 1988, Gaussian, Inc.),
 the Gaussian 86(TM) system (copyright 1986, Carnegie Mellon
 University), and the Gaussian 82(TM) system (copyright 1983,
 Carnegie Mellon University). Gaussian is a federally registered
 trademark of Gaussian, Inc.
  
 This software contains proprietary and confidential information,
 including trade secrets, belonging to Gaussian, Inc.
  
 This software is provided under written license and may be
 used, copied, transmitted, or stored only in accord with that
 written license.
  
 The following legend is applicable only to US Government
 contracts under FAR:
  
                    RESTRICTED RIGHTS LEGEND
  
 Use, reproduction and disclosure by the US Government is
 subject to restrictions as set forth in subparagraphs (a)
 and (c) of the Commercial Computer Software - Restricted
 Rights clause in FAR 52.227-19.
  
 Gaussian, Inc.
 340 Quinnipiac St., Bldg. 40, Wallingford CT 06492
  
  
 ---------------------------------------------------------------
 Warning -- This program may not be used in any manner that
 competes with the business of Gaussian, Inc. or will provide
 assistance to any competitor of Gaussian, Inc.  The licensee
 of this program is prohibited from giving any competitor of
 Gaussian, Inc. access to this program.  By using this program,
 the user acknowledges that Gaussian, Inc. is engaged in the
 business of creating and licensing software in the field of
 computational chemistry and represents and warrants to the
 licensee that it is not a competitor of Gaussian, Inc. and that
 it will not use this program in any manner prohibited above.
 ---------------------------------------------------------------
  

 Cite this work as:
 Gaussian 09, Revision D.01,
 M. J. Frisch, G. W. Trucks, H. B. Schlegel, G. E. Scuseria, 
 M. A. Robb, J. R. Cheeseman, G. Scalmani, V. Barone, B. Mennucci, 
 G. A. Petersson, H. Nakatsuji, M. Caricato, X. Li, H. P. Hratchian, 
 A. F. Izmaylov, J. Bloino, G. Zheng, J. L. Sonnenberg, M. Hada, 
 M. Ehara, K. Toyota, R. Fukuda, J. Hasegawa, M. Ishida, T. Nakajima, 
 Y. Honda, O. Kitao, H. Nakai, T. Vreven, J. A. Montgomery, Jr., 
 J. E. Peralta, F. Ogliaro, M. Bearpark, J. J. Heyd, E. Brothers, 
 K. N. Kudin, V. N. Staroverov, T. Keith, R. Kobayashi, J. Normand, 
 K. Raghavachari, A. Rendell, J. C. Burant, S. S. Iyengar, J. Tomasi, 
 M. Cossi, N. Rega, J. M. Millam, M. Klene, J. E. Knox, J. B. Cross, 
 V. Bakken, C. Adamo, J. Jaramillo, R. Gomperts, R. E. Stratmann, 
 O. Yazyev, A. J. Austin, R. Cammi, C. Pomelli, J. W. Ochterski, 
 R. L. Martin, K. Morokuma, V. G. Zakrzewski, G. A. Voth, 
 P. Salvador, J. J. Dannenberg, S. Dapprich, A. D. Daniels, 
 O. Farkas, J. B. Foresman, J. V. Ortiz, J. Cioslowski, 
 and D. J. Fox, Gaussian, Inc., Wallingford CT, 2013.
 
 ******************************************
 Gaussian 09:  EM64L-G09RevD.01 24-Apr-2013
                14-Feb-2018 
 ******************************************
 ----------------
 # BLYP/3-21G Opt
 ----------------
 1/14=-1,18=20,19=15,26=3,38=1/1,3;
 2/9=110,12=2,17=6,18=5,40=1/2;
 3/5=5,11=2,16=1,25=1,30=1,71=1,74=402/1,2,3;
 4//1;
 5/5=2,38=5/2;
 6/7=2,8=2,9=2,10=2,28=1/1;
 7//1,2,3,16;
 1/14=-1,18=20,19=15,26=3/3(2);
 2/9=110/2;
 99//99;
 2/9=110/2;
 3/5=5,11=2,16=1,25=1,30=1,71=1,74=402/1,2,3;
 4/5=5,16=3,69=1/1;
 5/5=2,38=5/2;
 7//1,2,3,16;
 1/14=-1,18=20,19=15,26=3/3(-5);
 2/9=110/2;
 6/7=2,8=2,9=2,10=2,19=2,28=1/1;
 99/9=1/99;
 ---------------------------------
 Gaussian file generated by cchemi
 ---------------------------------
 Symbolic Z-matrix:
 Charge =  0 Multiplicity = 1
 H                    0     0.6      -0.44454  -0.19577 
 H                    0     0.1       0.97655  -0.71769 
 O                    0     0.6       0.46799   0.09323 
 

 GradGradGradGradGradGradGradGradGradGradGradGradGradGradGradGradGradGrad
 Berny optimization.
 Initialization pass.
                           ----------------------------
                           !    Initial Parameters    !
                           ! (Angstroms and Degrees)  !
 --------------------------                            --------------------------
 ! Name  Definition              Value          Derivative Info.                !
 --------------------------------------------------------------------------------
 ! R1    R(1,3)                  0.9572         estimate D2E/DX2                !
 ! R2    R(2,3)                  1.0799         estimate D2E/DX2                !
 ! A1    A(1,3,2)              102.8398         estimate D2E/DX2                !
 --------------------------------------------------------------------------------
 Trust Radius=3.00D-01 FncErr=1.00D-07 GrdErr=1.00D-06
 Number of steps in this run=     20 maximum allowed number of steps=    100.
 GradGradGradGradGradGradGradGradGradGradGradGradGradGradGradGradGradGrad

                          Input orientation:                          
 ---------------------------------------------------------------------
 Center     Atomic      Atomic             Coordinates (Angstroms)
 Number     Number       Type             X           Y           Z
 ---------------------------------------------------------------------
      1          1           0        0.600000   -0.444539   -0.195772
      2          1           0        0.100000    0.976550   -0.717694
      3          8           0        0.600000    0.467990    0.093231
 ---------------------------------------------------------------------
                    Distance matrix (angstroms):
                    1          2          3
     1  H    0.000000
     2  H    1.594333   0.000000
     3  O    0.957200   1.079923   0.000000
 Stoichiometry    H2O
 Framework group  CS[SG(H2O)]
 Deg. of freedom     3
 Full point group                 CS      NOp   2
 Largest Abelian subgroup         CS      NOp   2
 Largest concise Abelian subgroup C1      NOp   1
                         Standard orientation:                         
 ---------------------------------------------------------------------
 Center     Atomic      Atomic             Coordinates (Angstroms)
 Number     Number       Type             X           Y           Z
 ---------------------------------------------------------------------
      1          1           0        0.791105   -0.411475    0.000000
      2          1           0       -0.791105   -0.607711    0.000000
      3          8           0        0.000000    0.127398    0.000000
 ---------------------------------------------------------------------
 Rotational constants (GHZ):    719.9250977    387.1923470    251.7795105
 Standard basis: 3-21G (6D, 7F)
 There are    11 symmetry adapted cartesian basis functions of A'  symmetry.
 There are     2 symmetry adapted cartesian basis functions of A"  symmetry.
 There are    11 symmetry adapted basis functions of A'  symmetry.
 There are     2 symmetry adapted basis functions of A"  symmetry.
    13 basis functions,    21 primitive gaussians,    13 cartesian basis functions
     5 alpha electrons        5 beta electrons
       nuclear repulsion energy         8.6747333347 Hartrees.
 NAtoms=    3 NActive=    3 NUniq=    3 SFac= 1.00D+00 NAtFMM=   60 NAOKFM=F Big=F
 Integral buffers will be    131072 words long.
 Raffenetti 2 integral format.
 Two-electron integral symmetry is turned on.
 One-electron integrals computed using PRISM.
 NBasis=    13 RedAO= T EigKep=  1.65D-01  NBF=    11     2
 NBsUse=    13 1.00D-06 EigRej= -1.00D+00 NBFU=    11     2
 ExpMin= 1.83D-01 ExpMax= 3.22D+02 ExpMxC= 3.22D+02 IAcc=1 IRadAn=         1 AccDes= 0.00D+00
 Harris functional with IExCor=  402 and IRadAn=       1 diagonalized for initial guess.
 HarFok:  IExCor=  402 AccDes= 0.00D+00 IRadAn=         1 IDoV= 1 UseB2=F ITyADJ=14
 ICtDFT=  3500011 ScaDFX=  1.000000  1.000000  1.000000  1.000000
 FoFCou: FMM=F IPFlag=           0 FMFlag=      100000 FMFlg1=           0
         NFxFlg=           0 DoJE=T BraDBF=F KetDBF=T FulRan=T
         wScrn=  0.000000 ICntrl=     500 IOpCl=  0 I1Cent=   200000004 NGrid=           0
         NMat0=    1 NMatS0=      1 NMatT0=    0 NMatD0=    1 NMtDS0=    0 NMtDT0=    0
 Petite list used in FoFCou.
 Initial guess orbital symmetries:
       Occupied  (A') (A') (A') (A') (A")
       Virtual   (A') (A') (A') (A') (A") (A') (A') (A')
 The electronic state of the initial guess is 1-A'.
 Keep J ints in memory in symmetry-blocked form, NReq=883555.
 Requested convergence on RMS density matrix=1.00D-08 within 128 cycles.
 Requested convergence on MAX density matrix=1.00D-06.
 Requested convergence on             energy=1.00D-06.
 No special actions if energy rises.
 Integral accuracy reduced to 1.0D-05 until final iterations.
 Initial convergence to 1.0D-05 achieved.  Increase integral accuracy.
 SCF Done:  E(RB-LYP) =  -75.9458886151     A.U. after   11 cycles
            NFock= 11  Conv=0.37D-08     -V/T= 2.0070

 **********************************************************************

            Population analysis using the SCF density.

 **********************************************************************

 Orbital symmetries:
       Occupied  (A') (A') (A') (A') (A")
       Virtual   (A') (A') (A') (A') (A") (A') (A') (A')
 The electronic state is 1-A'.
 Alpha  occ. eigenvalues --  -18.65021  -0.87297  -0.42479  -0.26358  -0.18509
 Alpha virt. eigenvalues --    0.04399   0.14049   0.83808   0.92507   1.36890
 Alpha virt. eigenvalues --    1.46007   1.56653   2.64135
          Condensed to atoms (all electrons):
               1          2          3
     1  H    0.496465  -0.040178   0.226930
     2  H   -0.040178   0.539915   0.226715
     3  O    0.226930   0.226715   8.136687
 Mulliken charges:
               1
     1  H    0.316783
     2  H    0.273549
     3  O   -0.590332
 Sum of Mulliken charges =   0.00000
 Mulliken charges with hydrogens summed into heavy atoms:
               1
     3  O    0.000000
 Electronic spatial extent (au):  <R**2>=             19.5628
 Charge=             -0.00000000000002 electrons
 Dipole moment (field-independent basis, Debye):
    X=              0.20705039723777    Y=             -2.12457961116145    Z=              0.00000000000000  Tot=              2.13464479273702
 Quadrupole moment (field-independent basis, Debye-Ang):
   XX=             -4.39240443429044   YY=             -5.80531821017546   ZZ=             -6.89193362139681
   XY=              0.22512163072464   XZ=              0.00000000000000   YZ=              0.00000000000000
 Traceless Quadrupole moment (field-independent basis, Debye-Ang):
   XX=              1.30414765433046   YY=             -0.10876612155456   ZZ=             -1.19538153277591
   XY=              0.22512163072464   XZ=              0.00000000000000   YZ=              0.00000000000000
 Octapole moment (field-independent basis, Debye-Ang**2):
  XXX=              0.32385464031585  YYY=             -0.81159710269303  ZZZ=              0.00000000000000  XYY=             -0.10868390606394
  XXY=             -0.96829731342424  XXZ=              0.00000000000000  XZZ=              0.10867765232784  YZZ=             -0.16908678094021
  YYZ=              0.00000000000000  XYZ=              0.00000000000000
 Hexadecapole moment (field-independent basis, Debye-Ang**3):
 XXXX=             -6.75527380228930 YYYY=             -6.03389312199003 ZZZZ=             -4.31190187280506 XXXY=             -0.22617752736681
 XXXZ=              0.00000000000000 YYYX=             -0.16176331580698 YYYZ=              0.00000000000000 ZZZX=              0.00000000000000
 ZZZY=              0.00000000000000 XXYY=             -1.79043412034173 XXZZ=             -2.06613495456684 YYZZ=             -1.78937470789710
 XXYZ=              0.00000000000000 YYXZ=              0.00000000000000 ZZXY=             -0.12568018228543
 N-N= 8.674733334742D+00 E-N=-1.971953405223D+02  KE= 7.541909023226D+01
 Symmetry A'   KE= 7.064665763424D+01
 Symmetry A"   KE= 4.772432598015D+00
 Calling FoFJK, ICntrl=      2527 FMM=F ISym2X=1 I1Cent= 0 IOpClX= 0 NMat=1 NMatS=1 NMatT=0.
 ***** Axes restored to original set *****
 -------------------------------------------------------------------
 Center     Atomic                   Forces (Hartrees/Bohr)
 Number     Number              X              Y              Z
 -------------------------------------------------------------------
      1        1          -0.000854472   -0.047479026   -0.016697945
      2        1           0.019307437   -0.021199573    0.030819202
      3        8          -0.018452965    0.068678599   -0.014121256
 -------------------------------------------------------------------
 Cartesian Forces:  Max     0.068678599 RMS     0.032596018

 GradGradGradGradGradGradGradGradGradGradGradGradGradGradGradGradGradGrad
 Berny optimization.
 FormGI is forming the generalized inverse of G from B-inverse, IUseBI=4.
 Internal  Forces:  Max     0.050305323 RMS     0.037906656
 Search for a local minimum.
 Step number   1 out of a maximum of   20
 All quantities printed in internal units (Hartrees-Bohrs-Radians)
 Mixed Optimization -- RFO/linear search
 Second derivative matrix not updated -- first step.
 The second derivative matrix:
                          R1        R2        A1
           R1           0.56080
           R2           0.00000   0.36004
           A1           0.00000   0.00000   0.16000
 ITU=  0
     Eigenvalues ---    0.16000   0.36004   0.56080
 RFO step:  Lambda=-9.29276418D-03 EMin= 1.60000000D-01
 Linear search not attempted -- first point.
 Iteration  1 RMS(Cart)=  0.05863799 RMS(Int)=  0.00152125
 Iteration  2 RMS(Cart)=  0.00132616 RMS(Int)=  0.00000123
 Iteration  3 RMS(Cart)=  0.00000122 RMS(Int)=  0.00000000
 Iteration  4 RMS(Cart)=  0.00000000 RMS(Int)=  0.00000000
 ClnCor:  largest displacement from symmetrization is 1.02D-15 for atom     2.
 Variable       Old X    -DE/DX   Delta X   Delta X   Delta X     New X
                                 (Linear)    (Quad)   (Total)
    R1        1.80885   0.05031   0.00000   0.08824   0.08824   1.89709
    R2        2.04076  -0.04207   0.00000  -0.11390  -0.11390   1.92686
    A1        1.79489  -0.00326   0.00000  -0.01924  -0.01924   1.77566
         Item               Value     Threshold  Converged?
 Maximum Force            0.050305     0.000450     NO 
 RMS     Force            0.037907     0.000300     NO 
 Maximum Displacement     0.066158     0.001800     NO 
 RMS     Displacement     0.058538     0.001200     NO 
 Predicted change in Energy=-4.744557D-03
 GradGradGradGradGradGradGradGradGradGradGradGradGradGradGradGradGradGrad

                          Input orientation:                          
 ---------------------------------------------------------------------
 Center     Atomic      Atomic             Coordinates (Angstroms)
 Number     Number       Type             X           Y           Z
 ---------------------------------------------------------------------
      1          1           0        0.595869   -0.457407   -0.207877
      2          1           0        0.114411    0.954409   -0.696691
      3          8           0        0.589719    0.502999    0.084333
 ---------------------------------------------------------------------
                    Distance matrix (angstroms):
                    1          2          3
     1  H    0.000000
     2  H    1.569702   0.000000
     3  O    1.003895   1.019651   0.000000
 Stoichiometry    H2O
 Framework group  CS[SG(H2O)]
 Deg. of freedom     3
 Full point group                 CS      NOp   2
 Largest Abelian subgroup         CS      NOp   2
 Largest concise Abelian subgroup C1      NOp   1
                         Standard orientation:                         
 ---------------------------------------------------------------------
 Center     Atomic      Atomic             Coordinates (Angstroms)
 Number     Number       Type             X           Y           Z
 ---------------------------------------------------------------------
      1          1           0        0.784752   -0.498364    0.000000
      2          1           0       -0.784752   -0.523328    0.000000
      3          8           0        0.000000    0.127711    0.000000
 ---------------------------------------------------------------------
 Rotational constants (GHZ):    692.8099098    406.8845632    256.3381598
 Standard basis: 3-21G (6D, 7F)
 There are    11 symmetry adapted cartesian basis functions of A'  symmetry.
 There are     2 symmetry adapted cartesian basis functions of A"  symmetry.
 There are    11 symmetry adapted basis functions of A'  symmetry.
 There are     2 symmetry adapted basis functions of A"  symmetry.
    13 basis functions,    21 primitive gaussians,    13 cartesian basis functions
     5 alpha electrons        5 beta electrons
       nuclear repulsion energy         8.7059433320 Hartrees.
 NAtoms=    3 NActive=    3 NUniq=    3 SFac= 1.00D+00 NAtFMM=   60 NAOKFM=F Big=F
 Integral buffers will be    131072 words long.
 Raffenetti 2 integral format.
 Two-electron integral symmetry is turned on.
 One-electron integrals computed using PRISM.
 NBasis=    13 RedAO= T EigKep=  1.67D-01  NBF=    11     2
 NBsUse=    13 1.00D-06 EigRej= -1.00D+00 NBFU=    11     2
 Initial guess from the checkpoint file:  "/tmp/allouche/18995/Gau-726.chk"
 B after Tr=     0.000000    0.000000    0.000000
         Rot=    0.999375    0.000000    0.000000    0.035357 Ang=   4.05 deg.
 Initial guess orbital symmetries:
       Occupied  (A') (A') (A') (A') (A")
       Virtual   (A') (A') (A') (A') (A') (A') (A') (A")
 ExpMin= 1.83D-01 ExpMax= 3.22D+02 ExpMxC= 3.22D+02 IAcc=1 IRadAn=         1 AccDes= 0.00D+00
 Harris functional with IExCor=  402 and IRadAn=       1 diagonalized for initial guess.
 HarFok:  IExCor=  402 AccDes= 0.00D+00 IRadAn=         1 IDoV= 1 UseB2=F ITyADJ=14
 ICtDFT=  3500011 ScaDFX=  1.000000  1.000000  1.000000  1.000000
 FoFCou: FMM=F IPFlag=           0 FMFlag=      100000 FMFlg1=           0
         NFxFlg=           0 DoJE=T BraDBF=F KetDBF=T FulRan=T
         wScrn=  0.000000 ICntrl=     500 IOpCl=  0 I1Cent=   200000004 NGrid=           0
         NMat0=    1 NMatS0=      1 NMatT0=    0 NMatD0=    1 NMtDS0=    0 NMtDT0=    0
 Petite list used in FoFCou.
 Keep J ints in memory in symmetry-blocked form, NReq=883555.
 Requested convergence on RMS density matrix=1.00D-08 within 128 cycles.
 Requested convergence on MAX density matrix=1.00D-06.
 Requested convergence on             energy=1.00D-06.
 No special actions if energy rises.
 Integral accuracy reduced to 1.0D-05 until final iterations.
 Initial convergence to 1.0D-05 achieved.  Increase integral accuracy.
 SCF Done:  E(RB-LYP) =  -75.9511518921     A.U. after   10 cycles
            NFock= 10  Conv=0.48D-08     -V/T= 2.0070
 Calling FoFJK, ICntrl=      2527 FMM=F ISym2X=1 I1Cent= 0 IOpClX= 0 NMat=1 NMatS=1 NMatT=0.
 ***** Axes restored to original set *****
 -------------------------------------------------------------------
 Center     Atomic                   Forces (Hartrees/Bohr)
 Number     Number              X              Y              Z
 -------------------------------------------------------------------
      1        1           0.000460706   -0.006816469   -0.001263212
      2        1           0.002491711   -0.001523641    0.004361285
      3        8          -0.002952417    0.008340110   -0.003098073
 -------------------------------------------------------------------
 Cartesian Forces:  Max     0.008340110 RMS     0.004264783

 GradGradGradGradGradGradGradGradGradGradGradGradGradGradGradGradGradGrad
 Berny optimization.
 Using GEDIIS/GDIIS optimizer.
 FormGI is forming the generalized inverse of G from B-inverse, IUseBI=4.
 Internal  Forces:  Max     0.006891675 RMS     0.005069142
 Search for a local minimum.
 Step number   2 out of a maximum of   20
 All quantities printed in internal units (Hartrees-Bohrs-Radians)
 Mixed Optimization -- RFO/linear search
 Update second derivatives using D2CorX and points    1    2
 DE= -5.26D-03 DEPred=-4.74D-03 R= 1.11D+00
 TightC=F SS=  1.41D+00  RLast= 1.45D-01 DXNew= 5.0454D-01 4.3607D-01
 Trust test= 1.11D+00 RLast= 1.45D-01 DXMaxT set to 4.36D-01
 The second derivative matrix:
                          R1        R2        A1
           R1           0.52350
           R2           0.02603   0.34261
           A1          -0.00958   0.00850   0.16195
 ITU=  1  0
 Use linear search instead of GDIIS.
     Eigenvalues ---    0.16122   0.33947   0.52736
 RFO step:  Lambda=-3.66051239D-05 EMin= 1.61224179D-01
 Quartic linear search produced a step of  0.13939.
 Iteration  1 RMS(Cart)=  0.01077947 RMS(Int)=  0.00005671
 Iteration  2 RMS(Cart)=  0.00003824 RMS(Int)=  0.00000000
 Iteration  3 RMS(Cart)=  0.00000000 RMS(Int)=  0.00000000
 ClnCor:  largest displacement from symmetrization is 4.74D-16 for atom     2.
 Variable       Old X    -DE/DX   Delta X   Delta X   Delta X     New X
                                 (Linear)    (Quad)   (Total)
    R1        1.89709   0.00689   0.01230   0.00162   0.01392   1.91101
    R2        1.92686  -0.00518  -0.01588  -0.00008  -0.01595   1.91091
    A1        1.77566   0.00167  -0.00268   0.01485   0.01217   1.78782
         Item               Value     Threshold  Converged?
 Maximum Force            0.006892     0.000450     NO 
 RMS     Force            0.005069     0.000300     NO 
 Maximum Displacement     0.011016     0.001800     NO 
 RMS     Displacement     0.010782     0.001200     NO 
 Predicted change in Energy=-1.016095D-04
 GradGradGradGradGradGradGradGradGradGradGradGradGradGradGradGradGradGrad

                          Input orientation:                          
 ---------------------------------------------------------------------
 Center     Atomic      Atomic             Coordinates (Angstroms)
 Number     Number       Type             X           Y           Z
 ---------------------------------------------------------------------
      1          1           0        0.597576   -0.463236   -0.206407
      2          1           0        0.115645    0.956610   -0.693596
      3          8           0        0.586779    0.506628    0.079767
 ---------------------------------------------------------------------
                    Distance matrix (angstroms):
                    1          2          3
     1  H    0.000000
     2  H    1.576570   0.000000
     3  O    1.011261   1.011208   0.000000
 Stoichiometry    H2O
 Framework group  CS[SG(H2O)]
 Deg. of freedom     3
 Full point group                 CS      NOp   2
 Largest Abelian subgroup         CS      NOp   2
 Largest concise Abelian subgroup C1      NOp   1
                         Standard orientation:                         
 ---------------------------------------------------------------------
 Center     Atomic      Atomic             Coordinates (Angstroms)
 Number     Number       Type             X           Y           Z
 ---------------------------------------------------------------------
      1          1           0        0.788285   -0.506766    0.000000
      2          1           0       -0.788285   -0.506682    0.000000
      3          8           0        0.000000    0.126681    0.000000
 ---------------------------------------------------------------------
 Rotational constants (GHZ):    703.6950317    403.4924983    256.4476737
 Standard basis: 3-21G (6D, 7F)
 There are    11 symmetry adapted cartesian basis functions of A'  symmetry.
 There are     2 symmetry adapted cartesian basis functions of A"  symmetry.
 There are    11 symmetry adapted basis functions of A'  symmetry.
 There are     2 symmetry adapted basis functions of A"  symmetry.
    13 basis functions,    21 primitive gaussians,    13 cartesian basis functions
     5 alpha electrons        5 beta electrons
       nuclear repulsion energy         8.7084222864 Hartrees.
 NAtoms=    3 NActive=    3 NUniq=    3 SFac= 1.00D+00 NAtFMM=   60 NAOKFM=F Big=F
 Integral buffers will be    131072 words long.
 Raffenetti 2 integral format.
 Two-electron integral symmetry is turned on.
 One-electron integrals computed using PRISM.
 NBasis=    13 RedAO= T EigKep=  1.68D-01  NBF=    11     2
 NBsUse=    13 1.00D-06 EigRej= -1.00D+00 NBFU=    11     2
 Initial guess from the checkpoint file:  "/tmp/allouche/18995/Gau-726.chk"
 B after Tr=     0.000000    0.000000    0.000000
         Rot=    0.999986    0.000000    0.000000    0.005239 Ang=   0.60 deg.
 Initial guess orbital symmetries:
       Occupied  (A') (A') (A') (A') (A")
       Virtual   (A') (A') (A') (A') (A') (A') (A') (A")
 Keep J ints in memory in symmetry-blocked form, NReq=883555.
 Requested convergence on RMS density matrix=1.00D-08 within 128 cycles.
 Requested convergence on MAX density matrix=1.00D-06.
 Requested convergence on             energy=1.00D-06.
 No special actions if energy rises.
 SCF Done:  E(RB-LYP) =  -75.9512471719     A.U. after    7 cycles
            NFock=  7  Conv=0.31D-08     -V/T= 2.0070
 Calling FoFJK, ICntrl=      2527 FMM=F ISym2X=1 I1Cent= 0 IOpClX= 0 NMat=1 NMatS=1 NMatT=0.
 ***** Axes restored to original set *****
 -------------------------------------------------------------------
 Center     Atomic                   Forces (Hartrees/Bohr)
 Number     Number              X              Y              Z
 -------------------------------------------------------------------
      1        1          -0.000133122   -0.000458354   -0.000403949
      2        1          -0.000303235    0.000005078   -0.000587874
      3        8           0.000436357    0.000453276    0.000991823
 -------------------------------------------------------------------
 Cartesian Forces:  Max     0.000991823 RMS     0.000495327

 GradGradGradGradGradGradGradGradGradGradGradGradGradGradGradGradGradGrad
 Berny optimization.
 Using GEDIIS/GDIIS optimizer.
 FormGI is forming the generalized inverse of G from B-inverse, IUseBI=4.
 Internal  Forces:  Max     0.000593142 RMS     0.000568683
 Search for a local minimum.
 Step number   3 out of a maximum of   20
 All quantities printed in internal units (Hartrees-Bohrs-Radians)
 Mixed Optimization -- En-DIIS/RFO-DIIS
 Update second derivatives using D2CorX and points    1    2    3
 DE= -9.53D-05 DEPred=-1.02D-04 R= 9.38D-01
 TightC=F SS=  1.41D+00  RLast= 2.44D-02 DXNew= 7.3339D-01 7.3258D-02
 Trust test= 9.38D-01 RLast= 2.44D-02 DXMaxT set to 4.36D-01
 The second derivative matrix:
                          R1        R2        A1
           R1           0.48196
           R2           0.02386   0.37514
           A1           0.00091  -0.00959   0.16981
 ITU=  1  1  0
 Use linear search instead of GDIIS.
     Eigenvalues ---    0.16935   0.37051   0.48705
 RFO step:  Lambda=-2.89047710D-06 EMin= 1.69353030D-01
 Quartic linear search produced a step of -0.04121.
 Iteration  1 RMS(Cart)=  0.00169003 RMS(Int)=  0.00000236
 Iteration  2 RMS(Cart)=  0.00000260 RMS(Int)=  0.00000000
 Iteration  3 RMS(Cart)=  0.00000000 RMS(Int)=  0.00000000
 ClnCor:  largest displacement from symmetrization is 1.72D-15 for atom     2.
 Variable       Old X    -DE/DX   Delta X   Delta X   Delta X     New X
                                 (Linear)    (Quad)   (Total)
    R1        1.91101   0.00055  -0.00057   0.00166   0.00108   1.91209
    R2        1.91091   0.00059   0.00066   0.00077   0.00143   1.91233
    A1        1.78782  -0.00056  -0.00050  -0.00272  -0.00322   1.78461
         Item               Value     Threshold  Converged?
 Maximum Force            0.000593     0.000450     NO 
 RMS     Force            0.000569     0.000300     NO 
 Maximum Displacement     0.001812     0.001800     NO 
 RMS     Displacement     0.001691     0.001200     NO 
 Predicted change in Energy=-1.623931D-06
 GradGradGradGradGradGradGradGradGradGradGradGradGradGradGradGradGradGrad

                          Input orientation:                          
 ---------------------------------------------------------------------
 Center     Atomic      Atomic             Coordinates (Angstroms)
 Number     Number       Type             X           Y           Z
 ---------------------------------------------------------------------
      1          1           0        0.597218   -0.462975   -0.207020
      2          1           0        0.115575    0.955945   -0.693941
      3          8           0        0.587207    0.507031    0.080726
 ---------------------------------------------------------------------
                    Distance matrix (angstroms):
                    1          2          3
     1  H    0.000000
     2  H    1.575565   0.000000
     3  O    1.011834   1.011964   0.000000
 Stoichiometry    H2O
 Framework group  CS[SG(H2O)]
 Deg. of freedom     3
 Full point group                 CS      NOp   2
 Largest Abelian subgroup         CS      NOp   2
 Largest concise Abelian subgroup C1      NOp   1
                         Standard orientation:                         
 ---------------------------------------------------------------------
 Center     Atomic      Atomic             Coordinates (Angstroms)
 Number     Number       Type             X           Y           Z
 ---------------------------------------------------------------------
      1          1           0        0.787783   -0.507968    0.000000
      2          1           0       -0.787783   -0.508174    0.000000
      3          8           0        0.000000    0.127018    0.000000
 ---------------------------------------------------------------------
 Rotational constants (GHZ):    699.9683397    404.0073868    256.1581500
 Standard basis: 3-21G (6D, 7F)
 There are    11 symmetry adapted cartesian basis functions of A'  symmetry.
 There are     2 symmetry adapted cartesian basis functions of A"  symmetry.
 There are    11 symmetry adapted basis functions of A'  symmetry.
 There are     2 symmetry adapted basis functions of A"  symmetry.
    13 basis functions,    21 primitive gaussians,    13 cartesian basis functions
     5 alpha electrons        5 beta electrons
       nuclear repulsion energy         8.7031392589 Hartrees.
 NAtoms=    3 NActive=    3 NUniq=    3 SFac= 1.00D+00 NAtFMM=   60 NAOKFM=F Big=F
 Integral buffers will be    131072 words long.
 Raffenetti 2 integral format.
 Two-electron integral symmetry is turned on.
 One-electron integrals computed using PRISM.
 NBasis=    13 RedAO= T EigKep=  1.68D-01  NBF=    11     2
 NBsUse=    13 1.00D-06 EigRej= -1.00D+00 NBFU=    11     2
 Initial guess from the checkpoint file:  "/tmp/allouche/18995/Gau-726.chk"
 B after Tr=     0.000000    0.000000    0.000000
         Rot=    1.000000    0.000000    0.000000   -0.000061 Ang=  -0.01 deg.
 Initial guess orbital symmetries:
       Occupied  (A') (A') (A') (A') (A")
       Virtual   (A') (A') (A') (A') (A') (A') (A') (A")
 Keep J ints in memory in symmetry-blocked form, NReq=883555.
 Requested convergence on RMS density matrix=1.00D-08 within 128 cycles.
 Requested convergence on MAX density matrix=1.00D-06.
 Requested convergence on             energy=1.00D-06.
 No special actions if energy rises.
 SCF Done:  E(RB-LYP) =  -75.9512491639     A.U. after    6 cycles
            NFock=  6  Conv=0.34D-08     -V/T= 2.0070
 Calling FoFJK, ICntrl=      2527 FMM=F ISym2X=1 I1Cent= 0 IOpClX= 0 NMat=1 NMatS=1 NMatT=0.
 ***** Axes restored to original set *****
 -------------------------------------------------------------------
 Center     Atomic                   Forces (Hartrees/Bohr)
 Number     Number              X              Y              Z
 -------------------------------------------------------------------
      1        1          -0.000010944   -0.000261036   -0.000103947
      2        1          -0.000086867    0.000054632   -0.000151566
      3        8           0.000097812    0.000206405    0.000255513
 -------------------------------------------------------------------
 Cartesian Forces:  Max     0.000261036 RMS     0.000159870

 GradGradGradGradGradGradGradGradGradGradGradGradGradGradGradGradGradGrad
 Berny optimization.
 Using GEDIIS/GDIIS optimizer.
 FormGI is forming the generalized inverse of G from B-inverse, IUseBI=4.
 Internal  Forces:  Max     0.000279698 RMS     0.000194893
 Search for a local minimum.
 Step number   4 out of a maximum of   20
 All quantities printed in internal units (Hartrees-Bohrs-Radians)
 Mixed Optimization -- En-DIIS/RFO-DIIS
 Swapping is turned off.
 Update second derivatives using D2CorX and points    1    2    3    4
 DE= -1.99D-06 DEPred=-1.62D-06 R= 1.23D+00
 TightC=F SS=  1.41D+00  RLast= 3.68D-03 DXNew= 7.3339D-01 1.1046D-02
 Trust test= 1.23D+00 RLast= 3.68D-03 DXMaxT set to 4.36D-01
 The second derivative matrix:
                          R1        R2        A1
           R1           0.40489
           R2          -0.03326   0.33826
           A1           0.03680   0.01072   0.17396
 ITU=  1  1  1  0
     Eigenvalues ---    0.16676   0.32801   0.42234
 En-DIIS/RFO-DIIS IScMMF=        0 using points:     4    3
 RFO step:  Lambda=-2.01182583D-07.
 DidBck=F Rises=F RFO-DIIS coefs:    1.29469   -0.29469
 Iteration  1 RMS(Cart)=  0.00044114 RMS(Int)=  0.00000012
 Iteration  2 RMS(Cart)=  0.00000014 RMS(Int)=  0.00000000
 ClnCor:  largest displacement from symmetrization is 8.74D-16 for atom     1.
 Variable       Old X    -DE/DX   Delta X   Delta X   Delta X     New X
                                 (Linear)    (Quad)   (Total)
    R1        1.91209   0.00028   0.00032   0.00047   0.00079   1.91288
    R2        1.91233   0.00018   0.00042   0.00021   0.00063   1.91296
    A1        1.78461  -0.00006  -0.00095   0.00042  -0.00052   1.78408
         Item               Value     Threshold  Converged?
 Maximum Force            0.000280     0.000450     YES
 RMS     Force            0.000195     0.000300     YES
 Maximum Displacement     0.000448     0.001800     YES
 RMS     Displacement     0.000441     0.001200     YES
 Predicted change in Energy=-1.817369D-07
 Optimization completed.
    -- Stationary point found.
                           ----------------------------
                           !   Optimized Parameters   !
                           ! (Angstroms and Degrees)  !
 --------------------------                            --------------------------
 ! Name  Definition              Value          Derivative Info.                !
 --------------------------------------------------------------------------------
 ! R1    R(1,3)                  1.0118         -DE/DX =    0.0003              !
 ! R2    R(2,3)                  1.012          -DE/DX =    0.0002              !
 ! A1    A(1,3,2)              102.2504         -DE/DX =   -0.0001              !
 --------------------------------------------------------------------------------
 GradGradGradGradGradGradGradGradGradGradGradGradGradGradGradGradGradGrad

                          Input orientation:                          
 ---------------------------------------------------------------------
 Center     Atomic      Atomic             Coordinates (Angstroms)
 Number     Number       Type             X           Y           Z
 ---------------------------------------------------------------------
      1          1           0        0.597218   -0.462975   -0.207020
      2          1           0        0.115575    0.955945   -0.693941
      3          8           0        0.587207    0.507031    0.080726
 ---------------------------------------------------------------------
                    Distance matrix (angstroms):
                    1          2          3
     1  H    0.000000
     2  H    1.575565   0.000000
     3  O    1.011834   1.011964   0.000000
 Stoichiometry    H2O
 Framework group  CS[SG(H2O)]
 Deg. of freedom     3
 Full point group                 CS      NOp   2
 Largest Abelian subgroup         CS      NOp   2
 Largest concise Abelian subgroup C1      NOp   1
                         Standard orientation:                         
 ---------------------------------------------------------------------
 Center     Atomic      Atomic             Coordinates (Angstroms)
 Number     Number       Type             X           Y           Z
 ---------------------------------------------------------------------
      1          1           0        0.787783   -0.507968    0.000000
      2          1           0       -0.787783   -0.508174    0.000000
      3          8           0        0.000000    0.127018    0.000000
 ---------------------------------------------------------------------
 Rotational constants (GHZ):    699.9683397    404.0073868    256.1581500

 **********************************************************************

            Population analysis using the SCF density.

 **********************************************************************

 Orbital symmetries:
       Occupied  (A') (A') (A') (A') (A")
       Virtual   (A') (A') (A') (A') (A") (A') (A') (A')
 The electronic state is 1-A'.
 Alpha  occ. eigenvalues --  -18.65013  -0.87302  -0.42652  -0.26447  -0.18533
 Alpha virt. eigenvalues --    0.05290   0.13766   0.85012   0.90853   1.36857
 Alpha virt. eigenvalues --    1.46397   1.56543   2.64836
          Condensed to atoms (all electrons):
               1          2          3
     1  H    0.516208  -0.041990   0.227541
     2  H   -0.041990   0.516253   0.227541
     3  O    0.227541   0.227541   8.141355
 Mulliken charges:
               1
     1  H    0.298242
     2  H    0.298196
     3  O   -0.596438
 Sum of Mulliken charges =   0.00000
 Mulliken charges with hydrogens summed into heavy atoms:
               1
     3  O    0.000000
 Electronic spatial extent (au):  <R**2>=             19.4526
 Charge=              0.00000000000000 electrons
 Dipole moment (field-independent basis, Debye):
    X=              0.00021965336589    Y=             -2.14916964478170    Z=              0.00000000000000  Tot=              2.14916965600641
 Quadrupole moment (field-independent basis, Debye-Ang):
   XX=             -4.39974785515931   YY=             -5.81935034380605   ZZ=             -6.88391490346033
   XY=              0.00023507009016   XZ=              0.00000000000000   YZ=              0.00000000000000
 Traceless Quadrupole moment (field-independent basis, Debye-Ang):
   XX=              1.30125651231592   YY=             -0.11834597633082   ZZ=             -1.18291053598510
   XY=              0.00023507009016   XZ=              0.00000000000000   YZ=              0.00000000000000
 Octapole moment (field-independent basis, Debye-Ang**2):
  XXX=              0.00034276475477  YYY=             -0.82485951032180  ZZZ=              0.00000000000000  XYY=             -0.00011232513144
  XXY=             -0.97831620357089  XXZ=              0.00000000000000  XZZ=              0.00011535673305  YZZ=             -0.18672750130269
  YYZ=              0.00000000000000  XYZ=              0.00000000000000
 Hexadecapole moment (field-independent basis, Debye-Ang**3):
 XXXX=             -6.71138556456686 YYYY=             -5.92096990834546 ZZZZ=             -4.29981186672289 XXXY=             -0.00023726210795
 XXXZ=              0.00000000000000 YYYX=             -0.00017159288363 YYYZ=              0.00000000000000 ZZZX=              0.00000000000000
 ZZZY=              0.00000000000000 XXYY=             -1.77531546175309 XXZZ=             -2.05356996526192 YYZZ=             -1.75981816275107
 XXYZ=              0.00000000000000 YYXZ=              0.00000000000000 ZZXY=             -0.00013148952653
 N-N= 8.703139258891D+00 E-N=-1.972563496335D+02  KE= 7.541972954276D+01
 Symmetry A'   KE= 7.064968627282D+01
 Symmetry A"   KE= 4.770043269936D+00
 1\1\GINC-ILMFIXE086\FOpt\RBLYP\3-21G\H2O1\ALLOUCHE\14-Feb-2018\0\\# BL
 YP/3-21G Opt\\Gaussian file generated by cchemi\\0,1\H,0.597217585,-0.
 4629747893,-0.207019669\H,0.1155754271,0.9559450791,-0.6939414122\O,0.
 5872069878,0.5070307102,0.0807260812\\Version=EM64L-G09RevD.01\State=1
 -A'\HF=-75.9512492\RMSD=3.450e-09\RMSF=1.599e-04\Dipole=-0.3072714,-0.
 3469645,-0.7072143\Quadrupole=-0.6023471,0.7517208,-0.1493737,-0.39043
 96,0.4150567,-0.2424003\PG=CS [SG(H2O1)]\\@


 MOST BUREAUCRACIES FUNCTION LIKE A SEPTIC TANK.
 THE LARGE CHUNKS RISE TO THE TOP.
 Job cpu time:       0 days  0 hours  0 minutes  5.9 seconds.
 File lengths (MBytes):  RWF=      5 Int=      0 D2E=      0 Chk=      1 Scr=      1
 Normal termination of Gaussian 09 at Wed Feb 14 08:54:31 2018.
