 Entering Gaussian System, Link 0=/opt/local/Softwares/G09DSrc-Corr5/g09/g09
 Initial command:
 /opt/local/Softwares/G09DSrc-Corr5/g09/l1.exe "/tmp/allouche/29369/Gau-15425.inp" -scrdir="/tmp/allouche/29369/"
 Entering Link 1 = /opt/local/Softwares/G09DSrc-Corr5/g09/l1.exe PID=     15427.
  
 Copyright (c) 1988,1990,1992,1993,1995,1998,2003,2009,2013,
            Gaussian, Inc.  All Rights Reserved.
  
 This is part of the Gaussian(R) 09 program.  It is based on
 the Gaussian(R) 03 system (copyright 2003, Gaussian, Inc.),
 the Gaussian(R) 98 system (copyright 1998, Gaussian, Inc.),
 the Gaussian(R) 94 system (copyright 1995, Gaussian, Inc.),
 the Gaussian 92(TM) system (copyright 1992, Gaussian, Inc.),
 the Gaussian 90(TM) system (copyright 1990, Gaussian, Inc.),
 the Gaussian 88(TM) system (copyright 1988, Gaussian, Inc.),
 the Gaussian 86(TM) system (copyright 1986, Carnegie Mellon
 University), and the Gaussian 82(TM) system (copyright 1983,
 Carnegie Mellon University). Gaussian is a federally registered
 trademark of Gaussian, Inc.
  
 This software contains proprietary and confidential information,
 including trade secrets, belonging to Gaussian, Inc.
  
 This software is provided under written license and may be
 used, copied, transmitted, or stored only in accord with that
 written license.
  
 The following legend is applicable only to US Government
 contracts under FAR:
  
                    RESTRICTED RIGHTS LEGEND
  
 Use, reproduction and disclosure by the US Government is
 subject to restrictions as set forth in subparagraphs (a)
 and (c) of the Commercial Computer Software - Restricted
 Rights clause in FAR 52.227-19.
  
 Gaussian, Inc.
 340 Quinnipiac St., Bldg. 40, Wallingford CT 06492
  
  
 ---------------------------------------------------------------
 Warning -- This program may not be used in any manner that
 competes with the business of Gaussian, Inc. or will provide
 assistance to any competitor of Gaussian, Inc.  The licensee
 of this program is prohibited from giving any competitor of
 Gaussian, Inc. access to this program.  By using this program,
 the user acknowledges that Gaussian, Inc. is engaged in the
 business of creating and licensing software in the field of
 computational chemistry and represents and warrants to the
 licensee that it is not a competitor of Gaussian, Inc. and that
 it will not use this program in any manner prohibited above.
 ---------------------------------------------------------------
  

 Cite this work as:
 Gaussian 09, Revision D.01,
 M. J. Frisch, G. W. Trucks, H. B. Schlegel, G. E. Scuseria, 
 M. A. Robb, J. R. Cheeseman, G. Scalmani, V. Barone, B. Mennucci, 
 G. A. Petersson, H. Nakatsuji, M. Caricato, X. Li, H. P. Hratchian, 
 A. F. Izmaylov, J. Bloino, G. Zheng, J. L. Sonnenberg, M. Hada, 
 M. Ehara, K. Toyota, R. Fukuda, J. Hasegawa, M. Ishida, T. Nakajima, 
 Y. Honda, O. Kitao, H. Nakai, T. Vreven, J. A. Montgomery, Jr., 
 J. E. Peralta, F. Ogliaro, M. Bearpark, J. J. Heyd, E. Brothers, 
 K. N. Kudin, V. N. Staroverov, T. Keith, R. Kobayashi, J. Normand, 
 K. Raghavachari, A. Rendell, J. C. Burant, S. S. Iyengar, J. Tomasi, 
 M. Cossi, N. Rega, J. M. Millam, M. Klene, J. E. Knox, J. B. Cross, 
 V. Bakken, C. Adamo, J. Jaramillo, R. Gomperts, R. E. Stratmann, 
 O. Yazyev, A. J. Austin, R. Cammi, C. Pomelli, J. W. Ochterski, 
 R. L. Martin, K. Morokuma, V. G. Zakrzewski, G. A. Voth, 
 P. Salvador, J. J. Dannenberg, S. Dapprich, A. D. Daniels, 
 O. Farkas, J. B. Foresman, J. V. Ortiz, J. Cioslowski, 
 and D. J. Fox, Gaussian, Inc., Wallingford CT, 2013.
 
 ******************************************
 Gaussian 09:  EM64L-G09RevD.01 24-Apr-2013
                14-Feb-2018 
 ******************************************
 -----------------------
 # BLYP/6-31G** Opt Freq
 -----------------------
 1/14=-1,18=20,19=15,26=3,38=1/1,3;
 2/9=110,12=2,17=6,18=5,40=1/2;
 3/5=1,6=6,7=101,11=2,16=1,25=1,30=1,71=1,74=402/1,2,3;
 4//1;
 5/5=2,38=5/2;
 6/7=2,8=2,9=2,10=2,28=1/1;
 7//1,2,3,16;
 1/14=-1,18=20,19=15,26=3/3(2);
 2/9=110/2;
 99//99;
 2/9=110/2;
 3/5=1,6=6,7=101,11=2,16=1,25=1,30=1,71=1,74=402/1,2,3;
 4/5=5,16=3,69=1/1;
 5/5=2,38=5/2;
 7//1,2,3,16;
 1/14=-1,18=20,19=15,26=3/3(-5);
 2/9=110/2;
 6/7=2,8=2,9=2,10=2,19=2,28=1/1;
 99/9=1/99;
 ---------------------------------
 Gaussian file generated by cchemi
 ---------------------------------
 Symbolic Z-matrix:
 Charge =  0 Multiplicity = 2
 H                    0     0.        0.        0. 
 O                    0     0.        0.        0.9 
 

 GradGradGradGradGradGradGradGradGradGradGradGradGradGradGradGradGradGrad
 Berny optimization.
 Initialization pass.
                           ----------------------------
                           !    Initial Parameters    !
                           ! (Angstroms and Degrees)  !
 --------------------------                            --------------------------
 ! Name  Definition              Value          Derivative Info.                !
 --------------------------------------------------------------------------------
 ! R1    R(1,2)                  0.9            estimate D2E/DX2                !
 --------------------------------------------------------------------------------
 Trust Radius=3.00D-01 FncErr=1.00D-07 GrdErr=1.00D-06
 Number of steps in this run=     20 maximum allowed number of steps=    100.
 GradGradGradGradGradGradGradGradGradGradGradGradGradGradGradGradGradGrad

                          Input orientation:                          
 ---------------------------------------------------------------------
 Center     Atomic      Atomic             Coordinates (Angstroms)
 Number     Number       Type             X           Y           Z
 ---------------------------------------------------------------------
      1          1           0        0.000000    0.000000    0.000000
      2          8           0        0.000000    0.000000    0.900000
 ---------------------------------------------------------------------
 Stoichiometry    HO(2)
 Framework group  C*V[C*(HO)]
 Deg. of freedom     1
 Full point group                 C*V     NOp   4
 Largest Abelian subgroup         C2V     NOp   4
 Largest concise Abelian subgroup C1      NOp   1
                         Standard orientation:                         
 ---------------------------------------------------------------------
 Center     Atomic      Atomic             Coordinates (Angstroms)
 Number     Number       Type             X           Y           Z
 ---------------------------------------------------------------------
      1          1           0        0.000000    0.000000   -0.800000
      2          8           0        0.000000    0.000000    0.100000
 ---------------------------------------------------------------------
 Rotational constants (GHZ):      0.0000000    658.0880623    658.0880623
 Standard basis: 6-31G(d,p) (6D, 7F)
 There are    11 symmetry adapted cartesian basis functions of A1  symmetry.
 There are     1 symmetry adapted cartesian basis functions of A2  symmetry.
 There are     4 symmetry adapted cartesian basis functions of B1  symmetry.
 There are     4 symmetry adapted cartesian basis functions of B2  symmetry.
 There are    11 symmetry adapted basis functions of A1  symmetry.
 There are     1 symmetry adapted basis functions of A2  symmetry.
 There are     4 symmetry adapted basis functions of B1  symmetry.
 There are     4 symmetry adapted basis functions of B2  symmetry.
    20 basis functions,    35 primitive gaussians,    20 cartesian basis functions
     5 alpha electrons        4 beta electrons
       nuclear repulsion energy         4.7037974097 Hartrees.
 NAtoms=    2 NActive=    2 NUniq=    2 SFac= 1.00D+00 NAtFMM=   60 NAOKFM=F Big=F
 Integral buffers will be    131072 words long.
 Raffenetti 2 integral format.
 Two-electron integral symmetry is turned on.
 One-electron integrals computed using PRISM.
 NBasis=    20 RedAO= T EigKep=  5.40D-02  NBF=    11     1     4     4
 NBsUse=    20 1.00D-06 EigRej= -1.00D+00 NBFU=    11     1     4     4
 ExpMin= 1.61D-01 ExpMax= 5.48D+03 ExpMxC= 8.25D+02 IAcc=1 IRadAn=         1 AccDes= 0.00D+00
 Harris functional with IExCor=  402 and IRadAn=       1 diagonalized for initial guess.
 HarFok:  IExCor=  402 AccDes= 0.00D+00 IRadAn=         1 IDoV= 1 UseB2=F ITyADJ=14
 ICtDFT=  3500011 ScaDFX=  1.000000  1.000000  1.000000  1.000000
 FoFCou: FMM=F IPFlag=           0 FMFlag=      100000 FMFlg1=           0
         NFxFlg=           0 DoJE=T BraDBF=F KetDBF=T FulRan=T
         wScrn=  0.000000 ICntrl=     500 IOpCl=  0 I1Cent=   200000004 NGrid=           0
         NMat0=    1 NMatS0=      1 NMatT0=    0 NMatD0=    1 NMtDS0=    0 NMtDT0=    0
 Petite list used in FoFCou.
 Initial guess orbital symmetries:
 Alpha Orbitals:
       Occupied  (SG) (SG) (SG) (PI) (PI)
       Virtual   (SG) (SG) (PI) (PI) (SG) (SG) (PI) (PI) (DLTA)
                 (DLTA) (SG) (PI) (PI) (SG) (SG)
 Beta  Orbitals:
       Occupied  (SG) (SG) (SG) (PI)
       Virtual   (PI) (SG) (SG) (PI) (PI) (SG) (SG) (PI) (PI) (DLTA)
                 (DLTA) (SG) (PI) (PI) (SG) (SG)
 Initial guess <Sx>= 0.0000 <Sy>= 0.0000 <Sz>= 0.5000 <S**2>= 0.7500 S= 0.5000
 Keep J ints in memory in symmetry-blocked form, NReq=902708.
 Requested convergence on RMS density matrix=1.00D-08 within 128 cycles.
 Requested convergence on MAX density matrix=1.00D-06.
 Requested convergence on             energy=1.00D-06.
 No special actions if energy rises.
 Integral accuracy reduced to 1.0D-05 until final iterations.
 Initial convergence to 1.0D-05 achieved.  Increase integral accuracy.
 SCF Done:  E(UB-LYP) =  -75.7038862469     A.U. after   11 cycles
            NFock= 11  Conv=0.46D-08     -V/T= 2.0055
 <Sx>= 0.0000 <Sy>= 0.0000 <Sz>= 0.5000 <S**2>= 0.7514 S= 0.5007
 <L.S>= 0.000000000000E+00
 Annihilation of the first spin contaminant:
 S**2 before annihilation     0.7514,   after     0.7500

 **********************************************************************

            Population analysis using the SCF density.

 **********************************************************************

 Orbital symmetries:
 Alpha Orbitals:
       Occupied  (SG) (SG) (SG) (PI) (PI)
       Virtual   (SG) (SG) (PI) (SG) (PI) (SG) (PI) (PI) (?A) (?A)
                 (?A) (PI) (PI) (SG) (SG)
 Beta  Orbitals:
       Occupied  (SG) (SG) (SG) (PI)
       Virtual   (PI) (SG) (SG) (SG) (PI) (PI) (SG) (PI) (PI) (DLTA)
                 (DLTA) (SG) (PI) (PI) (SG) (SG)
 Unable to determine electronic state:  partially filled degenerate orbitals.
 Alpha  occ. eigenvalues --  -18.85158  -0.92534  -0.40741  -0.33443  -0.26190
 Alpha virt. eigenvalues --    0.06934   0.72738   0.76492   0.81129   0.81242
 Alpha virt. eigenvalues --    1.03634   1.47534   1.51324   1.69378   1.69391
 Alpha virt. eigenvalues --    2.37505   2.61591   2.64286   3.29048   3.48554
  Beta  occ. eigenvalues --  -18.82988  -0.87262  -0.38324  -0.23837
  Beta virt. eigenvalues --   -0.21150   0.07687   0.73970   0.82612   0.82782
  Beta virt. eigenvalues --    0.85188   1.06002   1.51805   1.51898   1.75293
  Beta virt. eigenvalues --    1.76368   2.39790   2.64395   2.64520   3.33473
  Beta virt. eigenvalues --    3.49476
          Condensed to atoms (all electrons):
               1          2
     1  H    0.440139   0.250242
     2  O    0.250242   8.059378
          Atomic-Atomic Spin Densities.
               1          2
     1  H   -0.026654   0.004453
     2  O    0.004453   1.017748
 Mulliken charges and spin densities:
               1          2
     1  H    0.309620  -0.022201
     2  O   -0.309620   1.022201
 Sum of Mulliken charges =   0.00000   1.00000
 Mulliken charges and spin densities with hydrogens summed into heavy atoms:
               1          2
     2  O    0.000000   1.000000
 Electronic spatial extent (au):  <R**2>=             14.5845
 Charge=             -0.00000000000001 electrons
 Dipole moment (field-independent basis, Debye):
    X=              0.00000000000000    Y=              0.00000000000000    Z=             -1.65828499901802  Tot=              1.65828499901802
 Quadrupole moment (field-independent basis, Debye-Ang):
   XX=             -6.31929569859969   YY=             -5.20522068529954   ZZ=             -4.63379613312978
   XY=              0.00000000000000   XZ=              0.00000000000000   YZ=              0.00000000000000
 Traceless Quadrupole moment (field-independent basis, Debye-Ang):
   XX=             -0.93319152625669   YY=              0.18088348704346   ZZ=              0.75230803921322
   XY=              0.00000000000000   XZ=              0.00000000000000   YZ=              0.00000000000000
 Octapole moment (field-independent basis, Debye-Ang**2):
  XXX=              0.00000000000000  YYY=              0.00000000000000  ZZZ=             -1.55948530023890  XYY=              0.00000000000000
  XXY=              0.00000000000000  XXZ=             -0.28640947316521  XZZ=              0.00000000000000  YZZ=              0.00000000000000
  YYZ=             -0.19897062147031  XYZ=              0.00000000000000
 Hexadecapole moment (field-independent basis, Debye-Ang**3):
 XXXX=             -4.49203638356856 YYYY=             -3.25804888560830 ZZZZ=             -4.99317589690646 XXXY=              0.00000000000000
 XXXZ=              0.00000000000000 YYYX=              0.00000000000000 YYYZ=              0.00000000000000 ZZZX=              0.00000000000000
 ZZZY=              0.00000000000000 XXYY=             -1.29163839776828 XXZZ=             -1.74741899905573 YYZZ=             -1.52968901860271
 XXYZ=              0.00000000000000 YYXZ=              0.00000000000000 ZZXY=              0.00000000000000
 N-N= 4.703797409689D+00 E-N=-1.885822086635D+02  KE= 7.528864339231D+01
 Symmetry A1   KE= 6.801572862404D+01
 Symmetry A2   KE= 2.424951165283D-35
 Symmetry B1   KE= 4.768684619333D+00
 Symmetry B2   KE= 2.504230148930D+00
                          Isotropic Fermi Contact Couplings
        Atom                 a.u.       MegaHertz       Gauss      10(-4) cm-1
     1  H(1)              -0.01336     -59.73395     -21.31456     -19.92510
     2  O(17)              0.07962     -48.26499     -17.22215     -16.09947
 --------------------------------------------------------
       Center         ----  Spin Dipole Couplings  ----
                      3XX-RR        3YY-RR        3ZZ-RR
 --------------------------------------------------------
     1   Atom       -0.157785     -0.031921      0.189705
     2   Atom       -1.810325      3.591374     -1.781049
 --------------------------------------------------------
                        XY            XZ            YZ
 --------------------------------------------------------
     1   Atom        0.000000      0.000000      0.000000
     2   Atom        0.000000      0.000000      0.000000
 --------------------------------------------------------


 ---------------------------------------------------------------------------------
              Anisotropic Spin Dipole Couplings in Principal Axis System
 ---------------------------------------------------------------------------------

       Atom             a.u.   MegaHertz   Gauss  10(-4) cm-1        Axes

              Baa    -0.1578   -84.186   -30.040   -28.082  1.0000  0.0000  0.0000
     1 H(1)   Bbb    -0.0319   -17.031    -6.077    -5.681  0.0000  1.0000  0.0000
              Bcc     0.1897   101.218    36.117    33.763  0.0000  0.0000  1.0000
 
              Baa    -1.8103   130.994    46.742    43.695  1.0000  0.0000  0.0000
     2 O(17)  Bbb    -1.7810   128.875    45.986    42.988  0.0000  0.0000  1.0000
              Bcc     3.5914  -259.869   -92.728   -86.683  0.0000  1.0000  0.0000
 

 ---------------------------------------------------------------------------------

 Calling FoFJK, ICntrl=      2527 FMM=F ISym2X=1 I1Cent= 0 IOpClX= 0 NMat=1 NMatS=1 NMatT=0.
 ***** Axes restored to original set *****
 -------------------------------------------------------------------
 Center     Atomic                   Forces (Hartrees/Bohr)
 Number     Number              X              Y              Z
 -------------------------------------------------------------------
      1        1           0.000000000    0.000000000   -0.108121493
      2        8           0.000000000    0.000000000    0.108121493
 -------------------------------------------------------------------
 Cartesian Forces:  Max     0.108121493 RMS     0.062423973

 GradGradGradGradGradGradGradGradGradGradGradGradGradGradGradGradGradGrad
 Berny optimization.
 FormGI is forming the generalized inverse of G from B-inverse, IUseBI=4.
 Internal  Forces:  Max     0.108121493 RMS     0.108121493
 Search for a local minimum.
 Step number   1 out of a maximum of   20
 All quantities printed in internal units (Hartrees-Bohrs-Radians)
 Mixed Optimization -- RFO/linear search
 Second derivative matrix not updated -- first step.
 The second derivative matrix:
                          R1
           R1           0.70673
 ITU=  0
     Eigenvalues ---    0.70673
 RFO step:  Lambda=-1.61713832D-02 EMin= 7.06726409D-01
 Linear search not attempted -- first point.
 Iteration  1 RMS(Cart)=  0.10575968 RMS(Int)=  0.00000000
 Iteration  2 RMS(Cart)=  0.00000000 RMS(Int)=  0.00000000
 ClnCor:  largest displacement from symmetrization is 0.00D+00 for atom     0.
 Variable       Old X    -DE/DX   Delta X   Delta X   Delta X     New X
                                 (Linear)    (Quad)   (Total)
    R1        1.70075   0.10812   0.00000   0.14957   0.14957   1.85032
         Item               Value     Threshold  Converged?
 Maximum Force            0.108121     0.000450     NO 
 RMS     Force            0.108121     0.000300     NO 
 Maximum Displacement     0.074783     0.001800     NO 
 RMS     Displacement     0.105760     0.001200     NO 
 Predicted change in Energy=-8.266570D-03
 GradGradGradGradGradGradGradGradGradGradGradGradGradGradGradGradGradGrad

                          Input orientation:                          
 ---------------------------------------------------------------------
 Center     Atomic      Atomic             Coordinates (Angstroms)
 Number     Number       Type             X           Y           Z
 ---------------------------------------------------------------------
      1          1           0        0.000000    0.000000   -0.039574
      2          8           0        0.000000    0.000000    0.939574
 ---------------------------------------------------------------------
 Stoichiometry    HO(2)
 Framework group  C*V[C*(HO)]
 Deg. of freedom     1
 Full point group                 C*V     NOp   4
 Largest Abelian subgroup         C2V     NOp   4
 Largest concise Abelian subgroup C1      NOp   1
                         Standard orientation:                         
 ---------------------------------------------------------------------
 Center     Atomic      Atomic             Coordinates (Angstroms)
 Number     Number       Type             X           Y           Z
 ---------------------------------------------------------------------
      1          1           0        0.000000    0.000000   -0.870353
      2          8           0        0.000000    0.000000    0.108794
 ---------------------------------------------------------------------
 Rotational constants (GHZ):      0.0000000    555.9976347    555.9976347
 Standard basis: 6-31G(d,p) (6D, 7F)
 There are    11 symmetry adapted cartesian basis functions of A1  symmetry.
 There are     1 symmetry adapted cartesian basis functions of A2  symmetry.
 There are     4 symmetry adapted cartesian basis functions of B1  symmetry.
 There are     4 symmetry adapted cartesian basis functions of B2  symmetry.
 There are    11 symmetry adapted basis functions of A1  symmetry.
 There are     1 symmetry adapted basis functions of A2  symmetry.
 There are     4 symmetry adapted basis functions of B1  symmetry.
 There are     4 symmetry adapted basis functions of B2  symmetry.
    20 basis functions,    35 primitive gaussians,    20 cartesian basis functions
     5 alpha electrons        4 beta electrons
       nuclear repulsion energy         4.3235757691 Hartrees.
 NAtoms=    2 NActive=    2 NUniq=    2 SFac= 1.00D+00 NAtFMM=   60 NAOKFM=F Big=F
 Integral buffers will be    131072 words long.
 Raffenetti 2 integral format.
 Two-electron integral symmetry is turned on.
 One-electron integrals computed using PRISM.
 NBasis=    20 RedAO= T EigKep=  6.13D-02  NBF=    11     1     4     4
 NBsUse=    20 1.00D-06 EigRej= -1.00D+00 NBFU=    11     1     4     4
 Initial guess from the checkpoint file:  "/tmp/allouche/29369/Gau-15427.chk"
 B after Tr=     0.000000    0.000000    0.000000
         Rot=    1.000000    0.000000    0.000000    0.000000 Ang=   0.00 deg.
 Initial guess orbital symmetries:
 Alpha Orbitals:
       Occupied  (SG) (SG) (SG) (PI) (PI)
       Virtual   (?A) (?A) (SG) (?A) (?A) (?A) (SG) (SG) (?A) (PI)
                 (?B) (?B) (PI) (?B) (?B)
 Beta  Orbitals:
       Occupied  (SG) (SG) (SG) (?A)
       Virtual   (SG) (SG) (SG) (SG) (?B) (?B) (SG) (SG) (?B) (?A)
                 (?A) (?A) (?A) (?A) (?A) (?A)
 Initial guess <Sx>= 0.0000 <Sy>= 0.0000 <Sz>= 0.5000 <S**2>= 0.7514 S= 0.5007
 ExpMin= 1.61D-01 ExpMax= 5.48D+03 ExpMxC= 8.25D+02 IAcc=1 IRadAn=         1 AccDes= 0.00D+00
 Harris functional with IExCor=  402 and IRadAn=       1 diagonalized for initial guess.
 HarFok:  IExCor=  402 AccDes= 0.00D+00 IRadAn=         1 IDoV= 1 UseB2=F ITyADJ=14
 ICtDFT=  3500011 ScaDFX=  1.000000  1.000000  1.000000  1.000000
 FoFCou: FMM=F IPFlag=           0 FMFlag=      100000 FMFlg1=           0
         NFxFlg=           0 DoJE=T BraDBF=F KetDBF=T FulRan=T
         wScrn=  0.000000 ICntrl=     500 IOpCl=  0 I1Cent=   200000004 NGrid=           0
         NMat0=    1 NMatS0=      1 NMatT0=    0 NMatD0=    1 NMtDS0=    0 NMtDT0=    0
 Petite list used in FoFCou.
 Keep J ints in memory in symmetry-blocked form, NReq=902708.
 Requested convergence on RMS density matrix=1.00D-08 within 128 cycles.
 Requested convergence on MAX density matrix=1.00D-06.
 Requested convergence on             energy=1.00D-06.
 No special actions if energy rises.
 Integral accuracy reduced to 1.0D-05 until final iterations.
 Initial convergence to 1.0D-05 achieved.  Increase integral accuracy.
 SCF Done:  E(UB-LYP) =  -75.7121323160     A.U. after   11 cycles
            NFock= 11  Conv=0.15D-08     -V/T= 2.0077
 <Sx>= 0.0000 <Sy>= 0.0000 <Sz>= 0.5000 <S**2>= 0.7516 S= 0.5008
 <L.S>= 0.000000000000E+00
 Annihilation of the first spin contaminant:
 S**2 before annihilation     0.7516,   after     0.7500
 Calling FoFJK, ICntrl=      2527 FMM=F ISym2X=1 I1Cent= 0 IOpClX= 0 NMat=1 NMatS=1 NMatT=0.
 ***** Axes restored to original set *****
 -------------------------------------------------------------------
 Center     Atomic                   Forces (Hartrees/Bohr)
 Number     Number              X              Y              Z
 -------------------------------------------------------------------
      1        1           0.000000000    0.000000000   -0.010869328
      2        8           0.000000000    0.000000000    0.010869328
 -------------------------------------------------------------------
 Cartesian Forces:  Max     0.010869328 RMS     0.006275409

 GradGradGradGradGradGradGradGradGradGradGradGradGradGradGradGradGradGrad
 Berny optimization.
 Using GEDIIS/GDIIS optimizer.
 Internal  Forces:  Max     0.010869328 RMS     0.010869328
 Search for a local minimum.
 Step number   2 out of a maximum of   20
 All quantities printed in internal units (Hartrees-Bohrs-Radians)
 Mixed Optimization -- RFO/linear search
 Update second derivatives using D2CorX and points    1    2
 DE= -8.25D-03 DEPred=-8.27D-03 R= 9.98D-01
 TightC=F SS=  1.41D+00  RLast= 1.50D-01 DXNew= 5.0454D-01 4.4870D-01
 Trust test= 9.98D-01 RLast= 1.50D-01 DXMaxT set to 4.49D-01
 The second derivative matrix:
                          R1
           R1           0.65023
 ITU=  1  0
 Use linear search instead of GDIIS.
     Eigenvalues ---    0.65023
 RFO step:  Lambda= 0.00000000D+00 EMin= 6.50225717D-01
 Quartic linear search produced a step of  0.15812.
 Iteration  1 RMS(Cart)=  0.01672302 RMS(Int)=  0.00000000
 Iteration  2 RMS(Cart)=  0.00000000 RMS(Int)=  0.00000000
 ClnCor:  largest displacement from symmetrization is 1.11D-16 for atom     1.
 Variable       Old X    -DE/DX   Delta X   Delta X   Delta X     New X
                                 (Linear)    (Quad)   (Total)
    R1        1.85032   0.01087   0.02365   0.00000   0.02365   1.87397
         Item               Value     Threshold  Converged?
 Maximum Force            0.010869     0.000450     NO 
 RMS     Force            0.010869     0.000300     NO 
 Maximum Displacement     0.011825     0.001800     NO 
 RMS     Displacement     0.016723     0.001200     NO 
 Predicted change in Energy=-7.521704D-05
 GradGradGradGradGradGradGradGradGradGradGradGradGradGradGradGradGradGrad

                          Input orientation:                          
 ---------------------------------------------------------------------
 Center     Atomic      Atomic             Coordinates (Angstroms)
 Number     Number       Type             X           Y           Z
 ---------------------------------------------------------------------
      1          1           0        0.000000    0.000000   -0.045831
      2          8           0        0.000000    0.000000    0.945831
 ---------------------------------------------------------------------
 Stoichiometry    HO(2)
 Framework group  C*V[C*(HO)]
 Deg. of freedom     1
 Full point group                 C*V     NOp   4
 Largest Abelian subgroup         C2V     NOp   4
 Largest concise Abelian subgroup C1      NOp   1
                         Standard orientation:                         
 ---------------------------------------------------------------------
 Center     Atomic      Atomic             Coordinates (Angstroms)
 Number     Number       Type             X           Y           Z
 ---------------------------------------------------------------------
      1          1           0        0.000000    0.000000   -0.881478
      2          8           0        0.000000    0.000000    0.110185
 ---------------------------------------------------------------------
 Rotational constants (GHZ):      0.0000000    542.0525620    542.0525620
 Standard basis: 6-31G(d,p) (6D, 7F)
 There are    11 symmetry adapted cartesian basis functions of A1  symmetry.
 There are     1 symmetry adapted cartesian basis functions of A2  symmetry.
 There are     4 symmetry adapted cartesian basis functions of B1  symmetry.
 There are     4 symmetry adapted cartesian basis functions of B2  symmetry.
 There are    11 symmetry adapted basis functions of A1  symmetry.
 There are     1 symmetry adapted basis functions of A2  symmetry.
 There are     4 symmetry adapted basis functions of B1  symmetry.
 There are     4 symmetry adapted basis functions of B2  symmetry.
    20 basis functions,    35 primitive gaussians,    20 cartesian basis functions
     5 alpha electrons        4 beta electrons
       nuclear repulsion energy         4.2690112861 Hartrees.
 NAtoms=    2 NActive=    2 NUniq=    2 SFac= 1.00D+00 NAtFMM=   60 NAOKFM=F Big=F
 Integral buffers will be    131072 words long.
 Raffenetti 2 integral format.
 Two-electron integral symmetry is turned on.
 One-electron integrals computed using PRISM.
 NBasis=    20 RedAO= T EigKep=  6.25D-02  NBF=    11     1     4     4
 NBsUse=    20 1.00D-06 EigRej= -1.00D+00 NBFU=    11     1     4     4
 Initial guess from the checkpoint file:  "/tmp/allouche/29369/Gau-15427.chk"
 B after Tr=     0.000000    0.000000    0.000000
         Rot=    1.000000    0.000000    0.000000    0.000000 Ang=   0.00 deg.
 Initial guess orbital symmetries:
 Alpha Orbitals:
       Occupied  (SG) (SG) (SG) (PI) (PI)
       Virtual   (?A) (?A) (SG) (?A) (?A) (?A) (SG) (SG) (?A) (PI)
                 (?B) (?B) (PI) (?B) (?B)
 Beta  Orbitals:
       Occupied  (SG) (SG) (SG) (?A)
       Virtual   (SG) (SG) (SG) (SG) (?B) (?B) (SG) (SG) (?B) (?A)
                 (?A) (?A) (?A) (?A) (?A) (?A)
 Initial guess <Sx>= 0.0000 <Sy>= 0.0000 <Sz>= 0.5000 <S**2>= 0.7516 S= 0.5008
 Keep J ints in memory in symmetry-blocked form, NReq=902708.
 Requested convergence on RMS density matrix=1.00D-08 within 128 cycles.
 Requested convergence on MAX density matrix=1.00D-06.
 Requested convergence on             energy=1.00D-06.
 No special actions if energy rises.
 SCF Done:  E(UB-LYP) =  -75.7122562799     A.U. after    8 cycles
            NFock=  8  Conv=0.15D-08     -V/T= 2.0079
 <Sx>= 0.0000 <Sy>= 0.0000 <Sz>= 0.5000 <S**2>= 0.7516 S= 0.5008
 <L.S>= 0.000000000000E+00
 Annihilation of the first spin contaminant:
 S**2 before annihilation     0.7516,   after     0.7500
 Calling FoFJK, ICntrl=      2527 FMM=F ISym2X=1 I1Cent= 0 IOpClX= 0 NMat=1 NMatS=1 NMatT=0.
 ***** Axes restored to original set *****
 -------------------------------------------------------------------
 Center     Atomic                   Forces (Hartrees/Bohr)
 Number     Number              X              Y              Z
 -------------------------------------------------------------------
      1        1           0.000000000    0.000000000    0.000224445
      2        8           0.000000000    0.000000000   -0.000224445
 -------------------------------------------------------------------
 Cartesian Forces:  Max     0.000224445 RMS     0.000129583

 GradGradGradGradGradGradGradGradGradGradGradGradGradGradGradGradGradGrad
 Berny optimization.
 Using GEDIIS/GDIIS optimizer.
 Internal  Forces:  Max     0.000224445 RMS     0.000224445
 Search for a local minimum.
 Step number   3 out of a maximum of   20
 All quantities printed in internal units (Hartrees-Bohrs-Radians)
 Mixed Optimization -- En-DIIS/RFO-DIIS
 Update second derivatives using D2CorX and points    2    3
 DE= -1.24D-04 DEPred=-7.52D-05 R= 1.65D+00
 TightC=F SS=  1.41D+00  RLast= 2.36D-02 DXNew= 7.5462D-01 7.0950D-02
 Trust test= 1.65D+00 RLast= 2.36D-02 DXMaxT set to 4.49D-01
 The second derivative matrix:
                          R1
           R1           0.46908
 ITU=  1  1
 Use linear search instead of GDIIS.
     Eigenvalues ---    0.46908
 RFO step:  Lambda= 0.00000000D+00 EMin= 4.69082929D-01
 Quartic linear search produced a step of -0.02113.
 Iteration  1 RMS(Cart)=  0.00035335 RMS(Int)=  0.00000000
 Iteration  2 RMS(Cart)=  0.00000000 RMS(Int)=  0.00000000
 ClnCor:  largest displacement from symmetrization is 1.11D-16 for atom     1.
 Variable       Old X    -DE/DX   Delta X   Delta X   Delta X     New X
                                 (Linear)    (Quad)   (Total)
    R1        1.87397  -0.00022  -0.00050   0.00000  -0.00050   1.87347
         Item               Value     Threshold  Converged?
 Maximum Force            0.000224     0.000450     YES
 RMS     Force            0.000224     0.000300     YES
 Maximum Displacement     0.000250     0.001800     YES
 RMS     Displacement     0.000353     0.001200     YES
 Predicted change in Energy=-5.359015D-08
 Optimization completed.
    -- Stationary point found.
                           ----------------------------
                           !   Optimized Parameters   !
                           ! (Angstroms and Degrees)  !
 --------------------------                            --------------------------
 ! Name  Definition              Value          Derivative Info.                !
 --------------------------------------------------------------------------------
 ! R1    R(1,2)                  0.9917         -DE/DX =   -0.0002              !
 --------------------------------------------------------------------------------
 GradGradGradGradGradGradGradGradGradGradGradGradGradGradGradGradGradGrad

                          Input orientation:                          
 ---------------------------------------------------------------------
 Center     Atomic      Atomic             Coordinates (Angstroms)
 Number     Number       Type             X           Y           Z
 ---------------------------------------------------------------------
      1          1           0        0.000000    0.000000   -0.045831
      2          8           0        0.000000    0.000000    0.945831
 ---------------------------------------------------------------------
 Stoichiometry    HO(2)
 Framework group  C*V[C*(HO)]
 Deg. of freedom     1
 Full point group                 C*V     NOp   4
 Largest Abelian subgroup         C2V     NOp   4
 Largest concise Abelian subgroup C1      NOp   1
                         Standard orientation:                         
 ---------------------------------------------------------------------
 Center     Atomic      Atomic             Coordinates (Angstroms)
 Number     Number       Type             X           Y           Z
 ---------------------------------------------------------------------
      1          1           0        0.000000    0.000000   -0.881478
      2          8           0        0.000000    0.000000    0.110185
 ---------------------------------------------------------------------
 Rotational constants (GHZ):      0.0000000    542.0525620    542.0525620

 **********************************************************************

            Population analysis using the SCF density.

 **********************************************************************

 Orbital symmetries:
 Alpha Orbitals:
       Occupied  (SG) (SG) (SG) (PI) (PI)
       Virtual   (SG) (SG) (PI) (SG) (PI) (SG) (PI) (PI) (?A) (?A)
                 (?A) (PI) (PI) (SG) (SG)
 Beta  Orbitals:
       Occupied  (SG) (SG) (SG) (PI)
       Virtual   (PI) (SG) (SG) (SG) (PI) (PI) (SG) (PI) (PI) (DLTA)
                 (DLTA) (SG) (PI) (PI) (SG) (SG)
 Unable to determine electronic state:  partially filled degenerate orbitals.
 Alpha  occ. eigenvalues --  -18.85866  -0.89868  -0.39863  -0.33072  -0.25806
 Alpha virt. eigenvalues --    0.04196   0.67802   0.76520   0.79540   0.81269
 Alpha virt. eigenvalues --    1.01901   1.46867   1.50479   1.69760   1.69780
 Alpha virt. eigenvalues --    2.21397   2.51118   2.53664   3.20006   3.38290
  Beta  occ. eigenvalues --  -18.83680  -0.84420  -0.37625  -0.23447
  Beta virt. eigenvalues --   -0.20733   0.05021   0.68496   0.81358   0.82806
  Beta virt. eigenvalues --    0.85227   1.04196   1.50890   1.51008   1.75697
  Beta virt. eigenvalues --    1.76778   2.23443   2.53677   2.53801   3.22903
  Beta virt. eigenvalues --    3.40868
          Condensed to atoms (all electrons):
               1          2
     1  H    0.468675   0.222229
     2  O    0.222229   8.086868
          Atomic-Atomic Spin Densities.
               1          2
     1  H   -0.032532   0.004592
     2  O    0.004592   1.023347
 Mulliken charges and spin densities:
               1          2
     1  H    0.309097  -0.027939
     2  O   -0.309097   1.027939
 Sum of Mulliken charges =   0.00000   1.00000
 Mulliken charges and spin densities with hydrogens summed into heavy atoms:
               1          2
     2  O    0.000000   1.000000
 Electronic spatial extent (au):  <R**2>=             15.1859
 Charge=             -0.00000000000001 electrons
 Dipole moment (field-independent basis, Debye):
    X=              0.00000000000000    Y=              0.00000000000000    Z=             -1.66892525398122  Tot=              1.66892525398122
 Quadrupole moment (field-independent basis, Debye-Ang):
   XX=             -6.41217568817438   YY=             -5.29652792118230   ZZ=             -4.51826538856105
   XY=              0.00000000000000   XZ=              0.00000000000000   YZ=              0.00000000000000
 Traceless Quadrupole moment (field-independent basis, Debye-Ang):
   XX=             -1.00318602220180   YY=              0.11246174479027   ZZ=              0.89072427741152
   XY=              0.00000000000000   XZ=              0.00000000000000   YZ=              0.00000000000000
 Octapole moment (field-independent basis, Debye-Ang**2):
  XXX=              0.00000000000000  YYY=              0.00000000000000  ZZZ=             -1.65797264289560  XYY=              0.00000000000000
  XXY=              0.00000000000000  XXZ=             -0.22511641411319  XZZ=              0.00000000000000  YZZ=              0.00000000000000
  YYZ=             -0.12381000562325  XYZ=              0.00000000000000
 Hexadecapole moment (field-independent basis, Debye-Ang**3):
 XXXX=             -4.60416766115074 YYYY=             -3.36660324040141 ZZZZ=             -5.43859398405764 XXXY=              0.00000000000000
 XXXZ=              0.00000000000000 YYYX=              0.00000000000000 YYYZ=              0.00000000000000 ZZZX=              0.00000000000000
 ZZZY=              0.00000000000000 XXYY=             -1.32841885586014 XXZZ=             -1.90987751438743 YYZZ=             -1.68934850129425
 XXYZ=              0.00000000000000 YYXZ=              0.00000000000000 ZZXY=              0.00000000000000
 N-N= 4.269011286073D+00 E-N=-1.876562882787D+02  KE= 7.511708417740D+01
 Symmetry A1   KE= 6.783115661429D+01
 Symmetry A2   KE= 2.452387849855D-35
 Symmetry B1   KE= 4.776741187317D+00
 Symmetry B2   KE= 2.509186375793D+00
                          Isotropic Fermi Contact Couplings
        Atom                 a.u.       MegaHertz       Gauss      10(-4) cm-1
     1  H(1)              -0.01445     -64.58673     -23.04615     -21.54381
     2  O(17)              0.07534     -45.67078     -16.29647     -15.23413
 --------------------------------------------------------
       Center         ----  Spin Dipole Couplings  ----
                      3XX-RR        3YY-RR        3ZZ-RR
 --------------------------------------------------------
     1   Atom       -0.125956     -0.038794      0.164751
     2   Atom       -1.826915      3.592121     -1.765206
 --------------------------------------------------------
                        XY            XZ            YZ
 --------------------------------------------------------
     1   Atom        0.000000      0.000000      0.000000
     2   Atom        0.000000      0.000000      0.000000
 --------------------------------------------------------


 ---------------------------------------------------------------------------------
              Anisotropic Spin Dipole Couplings in Principal Axis System
 ---------------------------------------------------------------------------------

       Atom             a.u.   MegaHertz   Gauss  10(-4) cm-1        Axes

              Baa    -0.1260   -67.204   -23.980   -22.417  1.0000  0.0000  0.0000
     1 H(1)   Bbb    -0.0388   -20.699    -7.386    -6.904  0.0000  1.0000  0.0000
              Bcc     0.1648    87.903    31.366    29.321  0.0000  0.0000  1.0000
 
              Baa    -1.8269   132.194    47.170    44.095  1.0000  0.0000  0.0000
     2 O(17)  Bbb    -1.7652   127.729    45.577    42.606  0.0000  0.0000  1.0000
              Bcc     3.5921  -259.923   -92.747   -86.701  0.0000  1.0000  0.0000
 

 ---------------------------------------------------------------------------------

 1\1\GINC-ILMFIXE086\FOpt\UBLYP\6-31G(d,p)\H1O1(2)\ALLOUCHE\14-Feb-2018
 \0\\# BLYP/6-31G** Opt Freq\\Gaussian file generated by cchemi\\0,2\H,
 0.,0.,-0.0458311638\O,0.,0.,0.9458311638\\Version=EM64L-G09RevD.01\HF=
 -75.7122563\S2=0.751613\S2-1=0.\S2A=0.750001\RMSD=1.516e-09\RMSF=1.296
 e-04\Dipole=0.,0.,-0.6566058\Quadrupole=-0.7458443,0.0836126,0.6622317
 ,0.,0.,0.\PG=C*V [C*(H1O1)]\\@


 YOU KNOW YOU'RE A TEACHER WHEN YOU SAY 2, WRITE 3, AND MEAN 4.
 -- RONALD ANSTROM, HIGH SCHOOL TEACHER, UNDERWOOD, N.D. 1974
 Job cpu time:       0 days  0 hours  0 minutes  5.2 seconds.
 File lengths (MBytes):  RWF=      5 Int=      0 D2E=      0 Chk=      1 Scr=      1
 Normal termination of Gaussian 09 at Wed Feb 14 17:06:03 2018.
 Link1:  Proceeding to internal job step number  2.
 ---------------------------------------------------------------------
 #N Geom=AllCheck Guess=TCheck SCRF=Check GenChk UBLYP/6-31G(d,p) Freq
 ---------------------------------------------------------------------
 1/10=4,29=7,30=1,38=1,40=1/1,3;
 2/12=2,40=1/2;
 3/5=1,6=6,7=101,11=2,14=-4,16=1,25=1,30=1,70=2,71=2,74=402,116=2,140=1/1,2,3;
 4/5=101/1;
 5/5=2,98=1/2;
 8/6=4,10=90,11=11/1;
 11/6=1,8=1,9=11,15=111,16=1/1,2,10;
 10/6=1/2;
 6/7=2,8=2,9=2,10=2,18=1,28=1/1;
 7/8=1,10=1,25=1/1,2,3,16;
 1/10=4,30=1/3;
 99//99;
 Structure from the checkpoint file:  "/tmp/allouche/29369/Gau-15427.chk"
 ---------------------------------
 Gaussian file generated by cchemi
 ---------------------------------
 Charge =  0 Multiplicity = 2
 Redundant internal coordinates found in file.
 H,0,0.,0.,-0.0458311638
 O,0,0.,0.,0.9458311638
 Recover connectivity data from disk.

 GradGradGradGradGradGradGradGradGradGradGradGradGradGradGradGradGradGrad
 Berny optimization.
 Initialization pass.
                           ----------------------------
                           !    Initial Parameters    !
                           ! (Angstroms and Degrees)  !
 --------------------------                            --------------------------
 ! Name  Definition              Value          Derivative Info.                !
 --------------------------------------------------------------------------------
 ! R1    R(1,2)                  0.9917         calculate D2E/DX2 analytically  !
 --------------------------------------------------------------------------------
 Trust Radius=3.00D-01 FncErr=1.00D-07 GrdErr=1.00D-07
 Number of steps in this run=      2 maximum allowed number of steps=      2.
 GradGradGradGradGradGradGradGradGradGradGradGradGradGradGradGradGradGrad

                          Input orientation:                          
 ---------------------------------------------------------------------
 Center     Atomic      Atomic             Coordinates (Angstroms)
 Number     Number       Type             X           Y           Z
 ---------------------------------------------------------------------
      1          1           0        0.000000    0.000000   -0.045831
      2          8           0        0.000000    0.000000    0.945831
 ---------------------------------------------------------------------
 Stoichiometry    HO(2)
 Framework group  C*V[C*(HO)]
 Deg. of freedom     1
 Full point group                 C*V     NOp   4
 Largest Abelian subgroup         C2V     NOp   4
 Largest concise Abelian subgroup C1      NOp   1
                         Standard orientation:                         
 ---------------------------------------------------------------------
 Center     Atomic      Atomic             Coordinates (Angstroms)
 Number     Number       Type             X           Y           Z
 ---------------------------------------------------------------------
      1          1           0        0.000000    0.000000   -0.881478
      2          8           0        0.000000    0.000000    0.110185
 ---------------------------------------------------------------------
 Rotational constants (GHZ):      0.0000000    542.0525620    542.0525620
 Standard basis: 6-31G(d,p) (6D, 7F)
 There are    11 symmetry adapted cartesian basis functions of A1  symmetry.
 There are     1 symmetry adapted cartesian basis functions of A2  symmetry.
 There are     4 symmetry adapted cartesian basis functions of B1  symmetry.
 There are     4 symmetry adapted cartesian basis functions of B2  symmetry.
 There are    11 symmetry adapted basis functions of A1  symmetry.
 There are     1 symmetry adapted basis functions of A2  symmetry.
 There are     4 symmetry adapted basis functions of B1  symmetry.
 There are     4 symmetry adapted basis functions of B2  symmetry.
    20 basis functions,    35 primitive gaussians,    20 cartesian basis functions
     5 alpha electrons        4 beta electrons
       nuclear repulsion energy         4.2690112861 Hartrees.
 NAtoms=    2 NActive=    2 NUniq=    2 SFac= 1.00D+00 NAtFMM=   60 NAOKFM=F Big=F
 Integral buffers will be    131072 words long.
 Raffenetti 2 integral format.
 Two-electron integral symmetry is turned on.
 One-electron integrals computed using PRISM.
 NBasis=    20 RedAO= T EigKep=  6.25D-02  NBF=    11     1     4     4
 NBsUse=    20 1.00D-06 EigRej= -1.00D+00 NBFU=    11     1     4     4
 Initial guess from the checkpoint file:  "/tmp/allouche/29369/Gau-15427.chk"
 B after Tr=     0.000000    0.000000    0.000000
         Rot=    1.000000    0.000000    0.000000    0.000000 Ang=   0.00 deg.
 Initial guess orbital symmetries:
 Alpha Orbitals:
       Occupied  (SG) (SG) (SG) (PI) (PI)
       Virtual   (SG) (SG) (PI) (SG) (PI) (SG) (PI) (PI) (?A) (?A)
                 (?A) (PI) (PI) (SG) (SG)
 Beta  Orbitals:
       Occupied  (SG) (SG) (SG) (PI)
       Virtual   (PI) (SG) (SG) (SG) (PI) (PI) (SG) (PI) (PI) (DLTA)
                 (DLTA) (SG) (PI) (PI) (SG) (SG)
 Initial guess <Sx>= 0.0000 <Sy>= 0.0000 <Sz>= 0.5000 <S**2>= 0.7516 S= 0.5008
 Keep J ints in memory in symmetry-blocked form, NReq=902708.
 Requested convergence on RMS density matrix=1.00D-08 within 128 cycles.
 Requested convergence on MAX density matrix=1.00D-06.
 Requested convergence on             energy=1.00D-06.
 No special actions if energy rises.
 Skip diagonalization as Alpha Fock matrix is already diagonal.
 SCF Done:  E(UB-LYP) =  -75.7122562799     A.U. after    1 cycles
            NFock=  1  Conv=0.11D-09     -V/T= 2.0079
 <Sx>= 0.0000 <Sy>= 0.0000 <Sz>= 0.5000 <S**2>= 0.7516 S= 0.5008
 <L.S>= 0.000000000000E+00
 Annihilation of the first spin contaminant:
 S**2 before annihilation     0.7516,   after     0.7500
 Range of M.O.s used for correlation:     1    20
 NBasis=    20 NAE=     5 NBE=     4 NFC=     0 NFV=     0
 NROrb=     20 NOA=     5 NOB=     4 NVA=    15 NVB=    16

 **** Warning!!: The smallest beta delta epsilon is  0.27141189D-01

 Symmetrizing basis deriv contribution to polar:
 IMax=3 JMax=2 DiffMx= 0.00D+00
 G2DrvN: will do     3 centers at a time, making    1 passes.
 Calling FoFCou, ICntrl=  3507 FMM=F I1Cent=   0 AccDes= 0.00D+00.
 End of G2Drv F.D. properties file   721 does not exist.
 End of G2Drv F.D. properties file   722 does not exist.
 End of G2Drv F.D. properties file   788 does not exist.
          IDoAtm=11
          Differentiating once with respect to electric field.
                with respect to dipole field.
          Differentiating once with respect to nuclear coordinates.
 Keep J ints in memory in symmetry-blocked form, NReq=881734.
          There are     9 degrees of freedom in the 1st order CPHF.  IDoFFX=6 NUNeed=     3.
      6 vectors produced by pass  0 Test12= 1.54D-15 1.11D-08 XBig12= 9.58D+00 2.14D+00.
 AX will form     6 AO Fock derivatives at one time.
      6 vectors produced by pass  1 Test12= 1.54D-15 1.11D-08 XBig12= 1.24D+00 4.44D-01.
      6 vectors produced by pass  2 Test12= 1.54D-15 1.11D-08 XBig12= 9.54D-03 3.18D-02.
      6 vectors produced by pass  3 Test12= 1.54D-15 1.11D-08 XBig12= 6.69D-05 3.96D-03.
      6 vectors produced by pass  4 Test12= 1.54D-15 1.11D-08 XBig12= 1.48D-07 1.73D-04.
      5 vectors produced by pass  5 Test12= 1.54D-15 1.11D-08 XBig12= 4.72D-10 1.09D-05.
      1 vectors produced by pass  6 Test12= 1.54D-15 1.11D-08 XBig12= 1.78D-12 7.19D-07.
      1 vectors produced by pass  7 Test12= 1.54D-15 1.11D-08 XBig12= 5.21D-15 3.19D-08.
 InvSVY:  IOpt=1 It=  1 EMax= 4.44D-16
 Solved reduced A of dimension    37 with     6 vectors.
 Isotropic polarizability for W=    0.000000        4.04 Bohr**3.
 End of Minotr F.D. properties file   721 does not exist.
 End of Minotr F.D. properties file   722 does not exist.
 End of Minotr F.D. properties file   788 does not exist.

 **********************************************************************

            Population analysis using the SCF density.

 **********************************************************************

 Orbital symmetries:
 Alpha Orbitals:
       Occupied  (SG) (SG) (SG) (PI) (PI)
       Virtual   (SG) (SG) (PI) (SG) (PI) (SG) (PI) (PI) (?A) (?A)
                 (?A) (PI) (PI) (SG) (SG)
 Beta  Orbitals:
       Occupied  (SG) (SG) (SG) (PI)
       Virtual   (PI) (SG) (SG) (SG) (PI) (PI) (SG) (PI) (PI) (DLTA)
                 (DLTA) (SG) (PI) (PI) (SG) (SG)
 Unable to determine electronic state:  partially filled degenerate orbitals.
 Alpha  occ. eigenvalues --  -18.85866  -0.89868  -0.39863  -0.33072  -0.25806
 Alpha virt. eigenvalues --    0.04196   0.67802   0.76520   0.79540   0.81269
 Alpha virt. eigenvalues --    1.01901   1.46867   1.50479   1.69760   1.69780
 Alpha virt. eigenvalues --    2.21397   2.51118   2.53664   3.20006   3.38290
  Beta  occ. eigenvalues --  -18.83680  -0.84420  -0.37625  -0.23447
  Beta virt. eigenvalues --   -0.20733   0.05021   0.68496   0.81358   0.82806
  Beta virt. eigenvalues --    0.85227   1.04196   1.50890   1.51008   1.75697
  Beta virt. eigenvalues --    1.76778   2.23443   2.53677   2.53801   3.22903
  Beta virt. eigenvalues --    3.40868
          Condensed to atoms (all electrons):
               1          2
     1  H    0.468675   0.222229
     2  O    0.222229   8.086868
          Atomic-Atomic Spin Densities.
               1          2
     1  H   -0.032532   0.004592
     2  O    0.004592   1.023347
 Mulliken charges and spin densities:
               1          2
     1  H    0.309097  -0.027939
     2  O   -0.309097   1.027939
 Sum of Mulliken charges =   0.00000   1.00000
 Mulliken charges and spin densities with hydrogens summed into heavy atoms:
               1          2
     2  O    0.000000   1.000000
 APT charges:
               1
     1  H    0.235965
     2  O   -0.235965
 Sum of APT charges =   0.00000
 APT charges with hydrogens summed into heavy atoms:
               1
     2  O    0.000000
 Electronic spatial extent (au):  <R**2>=             15.1859
 Charge=              0.00000000000000 electrons
 Dipole moment (field-independent basis, Debye):
    X=              0.00000000000000    Y=              0.00000000000000    Z=             -1.66892525293950  Tot=              1.66892525293950
 Quadrupole moment (field-independent basis, Debye-Ang):
   XX=             -6.41217568209003   YY=             -5.29652791786380   ZZ=             -4.51826538381152
   XY=              0.00000000000000   XZ=              0.00000000000000   YZ=              0.00000000000000
 Traceless Quadrupole moment (field-independent basis, Debye-Ang):
   XX=             -1.00318602083491   YY=              0.11246174339131   ZZ=              0.89072427744360
   XY=              0.00000000000000   XZ=              0.00000000000000   YZ=              0.00000000000000
 Octapole moment (field-independent basis, Debye-Ang**2):
  XXX=              0.00000000000000  YYY=              0.00000000000000  ZZZ=             -1.65797264087255  XYY=              0.00000000000000
  XXY=              0.00000000000000  XXZ=             -0.22511641351604  XZZ=              0.00000000000000  YZZ=              0.00000000000000
  YYZ=             -0.12381000525662  XYZ=              0.00000000000000
 Hexadecapole moment (field-independent basis, Debye-Ang**3):
 XXXX=             -4.60416765302776 YYYY=             -3.36660323711934 ZZZZ=             -5.43859397581527 XXXY=              0.00000000000000
 XXXZ=              0.00000000000000 YYYX=              0.00000000000000 YYYZ=              0.00000000000000 ZZZX=              0.00000000000000
 ZZZY=              0.00000000000000 XXYY=             -1.32841885395934 XXZZ=             -1.90987751155804 YYZZ=             -1.68934849928975
 XXYZ=              0.00000000000000 YYXZ=              0.00000000000000 ZZXY=              0.00000000000000
 N-N= 4.269011286073D+00 E-N=-1.876562883002D+02  KE= 7.511708418913D+01
 Symmetry A1   KE= 6.783115662066D+01
 Symmetry A2   KE= 2.452387847695D-35
 Symmetry B1   KE= 4.776741192681D+00
 Symmetry B2   KE= 2.509186375793D+00
  Exact polarizability:   2.535   0.000   2.868   0.000   0.000   6.720
 Approx polarizability:   2.947   0.000   3.967   0.000   0.000   9.962
                          Isotropic Fermi Contact Couplings
        Atom                 a.u.       MegaHertz       Gauss      10(-4) cm-1
     1  H(1)              -0.01445     -64.58673     -23.04615     -21.54381
     2  O(17)              0.07534     -45.67077     -16.29647     -15.23413
 --------------------------------------------------------
       Center         ----  Spin Dipole Couplings  ----
                      3XX-RR        3YY-RR        3ZZ-RR
 --------------------------------------------------------
     1   Atom       -0.125956     -0.038794      0.164751
     2   Atom       -1.826915      3.592121     -1.765206
 --------------------------------------------------------
                        XY            XZ            YZ
 --------------------------------------------------------
     1   Atom        0.000000      0.000000      0.000000
     2   Atom        0.000000      0.000000      0.000000
 --------------------------------------------------------


 ---------------------------------------------------------------------------------
              Anisotropic Spin Dipole Couplings in Principal Axis System
 ---------------------------------------------------------------------------------

       Atom             a.u.   MegaHertz   Gauss  10(-4) cm-1        Axes

              Baa    -0.1260   -67.204   -23.980   -22.417  1.0000  0.0000  0.0000
     1 H(1)   Bbb    -0.0388   -20.699    -7.386    -6.904  0.0000  1.0000  0.0000
              Bcc     0.1648    87.903    31.366    29.321  0.0000  0.0000  1.0000
 
              Baa    -1.8269   132.194    47.170    44.095  1.0000  0.0000  0.0000
     2 O(17)  Bbb    -1.7652   127.729    45.577    42.606  0.0000  0.0000  1.0000
              Bcc     3.5921  -259.923   -92.747   -86.701  0.0000  1.0000  0.0000
 

 ---------------------------------------------------------------------------------

 Calling FoFJK, ICntrl=    100527 FMM=F ISym2X=1 I1Cent= 0 IOpClX= 0 NMat=1 NMatS=1 NMatT=0.
 Full mass-weighted force constant matrix:
 Low frequencies ---   -0.0020   -0.0013   -0.0011   53.5117   74.8784 3536.8401
 Diagonal vibrational polarizability:
        0.0000000       0.0000000       0.0001129
 Harmonic frequencies (cm**-1), IR intensities (KM/Mole), Raman scattering
 activities (A**4/AMU), depolarization ratios for plane and unpolarized
 incident light, reduced masses (AMU), force constants (mDyne/A),
 and normal coordinates:
                      1
                     SG
 Frequencies --   3536.84006579123300
 Red. masses --      1.06709067145727
 Frc consts  --      7.86470310017533
 IR Inten    --      0.05245699239253
  Atom  AN      X      Y      Z
     1   1     0.000000000000   0.000000000000   0.998020818489
     2   8     0.000000000000   0.000000000000  -0.062884384879

 -------------------
 - Thermochemistry -
 -------------------
 Temperature   298.150 Kelvin.  Pressure   1.00000 Atm.
 Atom     1 has atomic number  1 and mass   1.00783
 Atom     2 has atomic number  8 and mass  15.99491
 Molecular mass:    17.00274 amu.
 Principal axes and moments of inertia in atomic units:
                           1         2         3
     Eigenvalues --     0.00000   3.32946   3.32946
           X            0.00000   0.00000   1.00000
           Y            0.00000   1.00000   0.00000
           Z            1.00000   0.00000   0.00000
 This molecule is a prolate symmetric top.
 Rotational symmetry number  1.
 Rotational temperature (Kelvin)     26.01439
 Rotational constant (GHZ):         542.052562
 Zero-point vibrational energy      21155.0 (Joules/Mol)
                                    5.05617 (Kcal/Mol)
 Vibrational temperatures:   5088.72
          (Kelvin)
 
 Zero-point correction=                           0.008058 (Hartree/Particle)
 Thermal correction to Energy=                    0.010418
 Thermal correction to Enthalpy=                  0.011362
 Thermal correction to Gibbs Free Energy=        -0.008901
 Sum of electronic and zero-point Energies=            -75.704199
 Sum of electronic and thermal Energies=               -75.701838
 Sum of electronic and thermal Enthalpies=             -75.700894
 Sum of electronic and thermal Free Energies=          -75.721158
 
                     E (Thermal)             CV                S
                      KCal/Mol        Cal/Mol-Kelvin    Cal/Mol-Kelvin
 Total                    6.537              4.968             42.648
 Electronic               0.000              0.000              1.377
 Translational            0.889              2.981             34.437
 Rotational               0.592              1.987              6.834
 Vibrational              5.056              0.000              0.000
                       Q            Log10(Q)             Ln(Q)
 Total Bot       0.124249D+05          4.094293          9.427459
 Total V=0       0.631662D+08          7.800485         17.961280
 Vib (Bot)       0.196702D-03         -3.706191         -8.533821
 Vib (V=0)       0.100000D+01          0.000000          0.000000
 Electronic      0.200000D+01          0.301030          0.693147
 Translational   0.275571D+07          6.440234         14.829186
 Rotational      0.114610D+02          1.059221          2.438947
 ***** Axes restored to original set *****
 -------------------------------------------------------------------
 Center     Atomic                   Forces (Hartrees/Bohr)
 Number     Number              X              Y              Z
 -------------------------------------------------------------------
      1        1           0.000000000    0.000000000    0.000224445
      2        8           0.000000000    0.000000000   -0.000224445
 -------------------------------------------------------------------
 Cartesian Forces:  Max     0.000224445 RMS     0.000129583
 FormGI is forming the generalized inverse of G from B-inverse, IUseBI=4.

 GradGradGradGradGradGradGradGradGradGradGradGradGradGradGradGradGradGrad
 Berny optimization.
 Internal  Forces:  Max     0.000224445 RMS     0.000224445
 Search for a local minimum.
 Step number   1 out of a maximum of    2
 All quantities printed in internal units (Hartrees-Bohrs-Radians)
 Second derivative matrix not updated -- analytic derivatives used.
 The second derivative matrix:
                          R1
           R1           0.44882
 ITU=  0
     Eigenvalues ---    0.44882
 Angle between quadratic step and forces=   0.00 degrees.
 Linear search not attempted -- first point.
 Iteration  1 RMS(Cart)=  0.00035361 RMS(Int)=  0.00000000
 Iteration  2 RMS(Cart)=  0.00000000 RMS(Int)=  0.00000000
 ClnCor:  largest displacement from symmetrization is 1.11D-16 for atom     1.
 Variable       Old X    -DE/DX   Delta X   Delta X   Delta X     New X
                                 (Linear)    (Quad)   (Total)
    R1        1.87397  -0.00022   0.00000  -0.00050  -0.00050   1.87347
         Item               Value     Threshold  Converged?
 Maximum Force            0.000224     0.000450     YES
 RMS     Force            0.000224     0.000300     YES
 Maximum Displacement     0.000250     0.001800     YES
 RMS     Displacement     0.000354     0.001200     YES
 Predicted change in Energy=-5.612019D-08
 Optimization completed.
    -- Stationary point found.
                           ----------------------------
                           !   Optimized Parameters   !
                           ! (Angstroms and Degrees)  !
 --------------------------                            --------------------------
 ! Name  Definition              Value          Derivative Info.                !
 --------------------------------------------------------------------------------
 ! R1    R(1,2)                  0.9917         -DE/DX =   -0.0002              !
 --------------------------------------------------------------------------------
 GradGradGradGradGradGradGradGradGradGradGradGradGradGradGradGradGradGrad

 1\1\GINC-ILMFIXE086\Freq\UBLYP\6-31G(d,p)\H1O1(2)\ALLOUCHE\14-Feb-2018
 \0\\#N Geom=AllCheck Guess=TCheck SCRF=Check GenChk UBLYP/6-31G(d,p) F
 req\\Gaussian file generated by cchemi\\0,2\H,0.,0.,-0.0458311638\O,0.
 ,0.,0.9458311638\\Version=EM64L-G09RevD.01\HF=-75.7122563\S2=0.751613\
 S2-1=0.\S2A=0.750001\RMSD=1.150e-10\RMSF=1.296e-04\ZeroPoint=0.0080575
 \Thermal=0.010418\Dipole=0.,0.,-0.6566058\DipoleDeriv=0.3504086,0.,0.,
 0.,0.3503454,0.,0.,0.,0.0071425,-0.3504086,0.,0.,0.,-0.3503454,0.,0.,0
 .,-0.0071425\Polar=2.5354208,0.,2.867599,0.,0.,6.7198128\PG=C*V [C*(H1
 O1)]\NImag=0\\0.00020117,0.,0.00010274,0.,0.,0.44881819,-0.00020117,0.
 ,0.,0.00020117,0.,-0.00010274,0.,0.,0.00010274,0.,0.,-0.44881819,0.,0.
 ,0.44881819\\0.,0.,-0.00022444,0.,0.,0.00022444\\\@



 IN THIS SHORT LIFE

 THAT ONLY LASTS AN HOUR

 HOW MUCH, HOW LITTLE, IS WITHIN OUR POWER....


 EMILY DICKINSON BOLTS OF MELODY NO. 521
 Job cpu time:       0 days  0 hours  0 minutes  3.3 seconds.
 File lengths (MBytes):  RWF=      5 Int=      0 D2E=      0 Chk=      1 Scr=      1
 Normal termination of Gaussian 09 at Wed Feb 14 17:06:06 2018.
