 Entering Gaussian System, Link 0=/opt/local/Softwares/G09DSrc-Corr5/g09/g09
 Initial command:
 /opt/local/Softwares/G09DSrc-Corr5/g09/l1.exe "/tmp/allouche/11912/Gau-16082.inp" -scrdir="/tmp/allouche/11912/"
 Entering Link 1 = /opt/local/Softwares/G09DSrc-Corr5/g09/l1.exe PID=     16084.
  
 Copyright (c) 1988,1990,1992,1993,1995,1998,2003,2009,2013,
            Gaussian, Inc.  All Rights Reserved.
  
 This is part of the Gaussian(R) 09 program.  It is based on
 the Gaussian(R) 03 system (copyright 2003, Gaussian, Inc.),
 the Gaussian(R) 98 system (copyright 1998, Gaussian, Inc.),
 the Gaussian(R) 94 system (copyright 1995, Gaussian, Inc.),
 the Gaussian 92(TM) system (copyright 1992, Gaussian, Inc.),
 the Gaussian 90(TM) system (copyright 1990, Gaussian, Inc.),
 the Gaussian 88(TM) system (copyright 1988, Gaussian, Inc.),
 the Gaussian 86(TM) system (copyright 1986, Carnegie Mellon
 University), and the Gaussian 82(TM) system (copyright 1983,
 Carnegie Mellon University). Gaussian is a federally registered
 trademark of Gaussian, Inc.
  
 This software contains proprietary and confidential information,
 including trade secrets, belonging to Gaussian, Inc.
  
 This software is provided under written license and may be
 used, copied, transmitted, or stored only in accord with that
 written license.
  
 The following legend is applicable only to US Government
 contracts under FAR:
  
                    RESTRICTED RIGHTS LEGEND
  
 Use, reproduction and disclosure by the US Government is
 subject to restrictions as set forth in subparagraphs (a)
 and (c) of the Commercial Computer Software - Restricted
 Rights clause in FAR 52.227-19.
  
 Gaussian, Inc.
 340 Quinnipiac St., Bldg. 40, Wallingford CT 06492
  
  
 ---------------------------------------------------------------
 Warning -- This program may not be used in any manner that
 competes with the business of Gaussian, Inc. or will provide
 assistance to any competitor of Gaussian, Inc.  The licensee
 of this program is prohibited from giving any competitor of
 Gaussian, Inc. access to this program.  By using this program,
 the user acknowledges that Gaussian, Inc. is engaged in the
 business of creating and licensing software in the field of
 computational chemistry and represents and warrants to the
 licensee that it is not a competitor of Gaussian, Inc. and that
 it will not use this program in any manner prohibited above.
 ---------------------------------------------------------------
  

 Cite this work as:
 Gaussian 09, Revision D.01,
 M. J. Frisch, G. W. Trucks, H. B. Schlegel, G. E. Scuseria, 
 M. A. Robb, J. R. Cheeseman, G. Scalmani, V. Barone, B. Mennucci, 
 G. A. Petersson, H. Nakatsuji, M. Caricato, X. Li, H. P. Hratchian, 
 A. F. Izmaylov, J. Bloino, G. Zheng, J. L. Sonnenberg, M. Hada, 
 M. Ehara, K. Toyota, R. Fukuda, J. Hasegawa, M. Ishida, T. Nakajima, 
 Y. Honda, O. Kitao, H. Nakai, T. Vreven, J. A. Montgomery, Jr., 
 J. E. Peralta, F. Ogliaro, M. Bearpark, J. J. Heyd, E. Brothers, 
 K. N. Kudin, V. N. Staroverov, T. Keith, R. Kobayashi, J. Normand, 
 K. Raghavachari, A. Rendell, J. C. Burant, S. S. Iyengar, J. Tomasi, 
 M. Cossi, N. Rega, J. M. Millam, M. Klene, J. E. Knox, J. B. Cross, 
 V. Bakken, C. Adamo, J. Jaramillo, R. Gomperts, R. E. Stratmann, 
 O. Yazyev, A. J. Austin, R. Cammi, C. Pomelli, J. W. Ochterski, 
 R. L. Martin, K. Morokuma, V. G. Zakrzewski, G. A. Voth, 
 P. Salvador, J. J. Dannenberg, S. Dapprich, A. D. Daniels, 
 O. Farkas, J. B. Foresman, J. V. Ortiz, J. Cioslowski, 
 and D. J. Fox, Gaussian, Inc., Wallingford CT, 2013.
 
 ******************************************
 Gaussian 09:  EM64L-G09RevD.01 24-Apr-2013
                14-Feb-2018 
 ******************************************
 -----------------------
 # BLYP/6-31G** Opt Freq
 -----------------------
 1/14=-1,18=20,19=15,26=3,38=1/1,3;
 2/9=110,12=2,17=6,18=5,40=1/2;
 3/5=1,6=6,7=101,11=2,16=1,25=1,30=1,71=1,74=402/1,2,3;
 4//1;
 5/5=2,38=5/2;
 6/7=2,8=2,9=2,10=2,28=1/1;
 7//1,2,3,16;
 1/14=-1,18=20,19=15,26=3/3(2);
 2/9=110/2;
 99//99;
 2/9=110/2;
 3/5=1,6=6,7=101,11=2,16=1,25=1,30=1,71=1,74=402/1,2,3;
 4/5=5,16=3,69=1/1;
 5/5=2,38=5/2;
 7//1,2,3,16;
 1/14=-1,18=20,19=15,26=3/3(-5);
 2/9=110/2;
 6/7=2,8=2,9=2,10=2,19=2,28=1/1;
 99/9=1/99;
 ---------------------------------
 Gaussian file generated by cchemi
 ---------------------------------
 Symbolic Z-matrix:
 Charge =  0 Multiplicity = 2
 H                    0     0.        0.        0. 
 S                    0     0.        0.        0.9 
 

 GradGradGradGradGradGradGradGradGradGradGradGradGradGradGradGradGradGrad
 Berny optimization.
 Initialization pass.
                           ----------------------------
                           !    Initial Parameters    !
                           ! (Angstroms and Degrees)  !
 --------------------------                            --------------------------
 ! Name  Definition              Value          Derivative Info.                !
 --------------------------------------------------------------------------------
 ! R1    R(1,2)                  0.9            estimate D2E/DX2                !
 --------------------------------------------------------------------------------
 Trust Radius=3.00D-01 FncErr=1.00D-07 GrdErr=1.00D-06
 Number of steps in this run=     20 maximum allowed number of steps=    100.
 GradGradGradGradGradGradGradGradGradGradGradGradGradGradGradGradGradGrad

                          Input orientation:                          
 ---------------------------------------------------------------------
 Center     Atomic      Atomic             Coordinates (Angstroms)
 Number     Number       Type             X           Y           Z
 ---------------------------------------------------------------------
      1          1           0        0.000000    0.000000    0.000000
      2         16           0        0.000000    0.000000    0.900000
 ---------------------------------------------------------------------
 Stoichiometry    HS(2)
 Framework group  C*V[C*(HS)]
 Deg. of freedom     1
 Full point group                 C*V     NOp   4
 Largest Abelian subgroup         C2V     NOp   4
 Largest concise Abelian subgroup C1      NOp   1
                         Standard orientation:                         
 ---------------------------------------------------------------------
 Center     Atomic      Atomic             Coordinates (Angstroms)
 Number     Number       Type             X           Y           Z
 ---------------------------------------------------------------------
      1          1           0        0.000000    0.000000   -0.847059
      2         16           0        0.000000    0.000000    0.052941
 ---------------------------------------------------------------------
 Rotational constants (GHZ):      0.0000000    638.5950491    638.5950491
 Standard basis: 6-31G(d,p) (6D, 7F)
 There are    13 symmetry adapted cartesian basis functions of A1  symmetry.
 There are     1 symmetry adapted cartesian basis functions of A2  symmetry.
 There are     5 symmetry adapted cartesian basis functions of B1  symmetry.
 There are     5 symmetry adapted cartesian basis functions of B2  symmetry.
 There are    13 symmetry adapted basis functions of A1  symmetry.
 There are     1 symmetry adapted basis functions of A2  symmetry.
 There are     5 symmetry adapted basis functions of B1  symmetry.
 There are     5 symmetry adapted basis functions of B2  symmetry.
    24 basis functions,    59 primitive gaussians,    24 cartesian basis functions
     9 alpha electrons        8 beta electrons
       nuclear repulsion energy         9.4075948194 Hartrees.
 NAtoms=    2 NActive=    2 NUniq=    2 SFac= 1.00D+00 NAtFMM=   60 NAOKFM=F Big=F
 Integral buffers will be    131072 words long.
 Raffenetti 2 integral format.
 Two-electron integral symmetry is turned on.
 One-electron integrals computed using PRISM.
 NBasis=    24 RedAO= T EigKep=  2.95D-02  NBF=    13     1     5     5
 NBsUse=    24 1.00D-06 EigRej= -1.00D+00 NBFU=    13     1     5     5
 ExpMin= 1.17D-01 ExpMax= 2.19D+04 ExpMxC= 3.30D+03 IAcc=1 IRadAn=         1 AccDes= 0.00D+00
 Harris functional with IExCor=  402 and IRadAn=       1 diagonalized for initial guess.
 HarFok:  IExCor=  402 AccDes= 0.00D+00 IRadAn=         1 IDoV= 1 UseB2=F ITyADJ=14
 ICtDFT=  3500011 ScaDFX=  1.000000  1.000000  1.000000  1.000000
 FoFCou: FMM=F IPFlag=           0 FMFlag=      100000 FMFlg1=           0
         NFxFlg=           0 DoJE=T BraDBF=F KetDBF=T FulRan=T
         wScrn=  0.000000 ICntrl=     500 IOpCl=  0 I1Cent=   200000004 NGrid=           0
         NMat0=    1 NMatS0=      1 NMatT0=    0 NMatD0=    1 NMtDS0=    0 NMtDT0=    0
 Petite list used in FoFCou.
 Initial guess orbital symmetries:
 Alpha Orbitals:
       Occupied  (SG) (SG) (SG) (PI) (PI) (SG) (SG) (PI) (PI)
       Virtual   (SG) (SG) (SG) (PI) (PI) (PI) (PI) (SG) (DLTA)
                 (DLTA) (SG) (PI) (PI) (SG) (SG)
 Beta  Orbitals:
       Occupied  (SG) (SG) (SG) (PI) (PI) (SG) (SG) (PI)
       Virtual   (PI) (SG) (SG) (SG) (PI) (PI) (PI) (PI) (SG) (DLTA)
                 (DLTA) (SG) (PI) (PI) (SG) (SG)
 Initial guess <Sx>= 0.0000 <Sy>= 0.0000 <Sz>= 0.5000 <S**2>= 0.7500 S= 0.5000
 Keep J ints in memory in symmetry-blocked form, NReq=926718.
 Requested convergence on RMS density matrix=1.00D-08 within 128 cycles.
 Requested convergence on MAX density matrix=1.00D-06.
 Requested convergence on             energy=1.00D-06.
 No special actions if energy rises.
 Integral accuracy reduced to 1.0D-05 until final iterations.
 Initial convergence to 1.0D-05 achieved.  Increase integral accuracy.
 SCF Done:  E(UB-LYP) =  -398.480168500     A.U. after   11 cycles
            NFock= 11  Conv=0.88D-08     -V/T= 2.0000
 <Sx>= 0.0000 <Sy>= 0.0000 <Sz>= 0.5000 <S**2>= 0.7518 S= 0.5009
 <L.S>= 0.000000000000E+00
 Annihilation of the first spin contaminant:
 S**2 before annihilation     0.7518,   after     0.7500

 **********************************************************************

            Population analysis using the SCF density.

 **********************************************************************

 Orbital symmetries:
 Alpha Orbitals:
       Occupied  (SG) (SG) (PI) (SG) (PI) (SG) (SG) (PI) (PI)
       Virtual   (SG) (SG) (PI) (SG) (PI) (PI) (PI) (?A) (?A) (?A)
                 (SG) (PI) (PI) (SG) (SG)
 Beta  Orbitals:
       Occupied  (SG) (SG) (SG) (PI) (PI) (SG) (SG) (PI)
       Virtual   (PI) (SG) (SG) (SG) (PI) (PI) (PI) (PI) (?A) (?A)
                 (?A) (SG) (PI) (PI) (SG) (SG)
 Unable to determine electronic state:  partially filled degenerate orbitals.
 Alpha  occ. eigenvalues --  -88.12947  -7.69713  -5.72986  -5.72545  -5.71085
 Alpha  occ. eigenvalues --   -0.75372  -0.38340  -0.27950  -0.23360
 Alpha virt. eigenvalues --    0.10323   0.20765   0.30121   0.30628   0.32683
 Alpha virt. eigenvalues --    0.61733   0.65610   0.66925   0.68230   0.70723
 Alpha virt. eigenvalues --    1.71584   2.24480   2.26637   3.16544   3.82303
  Beta  occ. eigenvalues --  -88.12487  -7.69263  -5.72269  -5.71705  -5.70802
  Beta  occ. eigenvalues --   -0.72896  -0.36631  -0.22044
  Beta virt. eigenvalues --   -0.21404   0.11664   0.21887   0.31318   0.33280
  Beta virt. eigenvalues --    0.33523   0.66325   0.66611   0.70863   0.73418
  Beta virt. eigenvalues --    0.74215   1.72434   2.26848   2.26863   3.17556
  Beta virt. eigenvalues --    3.84212
          Condensed to atoms (all electrons):
               1          2
     1  H    0.807664   0.196716
     2  S    0.196716  15.798903
          Atomic-Atomic Spin Densities.
               1          2
     1  H   -0.007676  -0.014718
     2  S   -0.014718   1.037112
 Mulliken charges and spin densities:
               1          2
     1  H   -0.004381  -0.022394
     2  S    0.004381   1.022394
 Sum of Mulliken charges =   0.00000   1.00000
 Mulliken charges and spin densities with hydrogens summed into heavy atoms:
               1          2
     2  S    0.000000   1.000000
 Electronic spatial extent (au):  <R**2>=             32.1299
 Charge=              0.00000000000000 electrons
 Dipole moment (field-independent basis, Debye):
    X=              0.00000000000000    Y=              0.00000000000000    Z=             -1.19064822520153  Tot=              1.19064822520153
 Quadrupole moment (field-independent basis, Debye-Ang):
   XX=            -15.08474350568903   YY=            -12.29692490480456   ZZ=            -12.17244813977514
   XY=              0.00000000000000   XZ=              0.00000000000000   YZ=              0.00000000000000
 Traceless Quadrupole moment (field-independent basis, Debye-Ang):
   XX=             -1.90003798893279   YY=              0.88778061195169   ZZ=              1.01225737698110
   XY=              0.00000000000000   XZ=              0.00000000000000   YZ=              0.00000000000000
 Octapole moment (field-independent basis, Debye-Ang**2):
  XXX=              0.00000000000000  YYY=              0.00000000000000  ZZZ=             -1.99165270833924  XYY=              0.00000000000000
  XXY=              0.00000000000000  XXZ=             -0.90452639244386  XZZ=              0.00000000000000  YZZ=              0.00000000000000
  YYZ=             -0.80146401901094  XYZ=              0.00000000000000
 Hexadecapole moment (field-independent basis, Debye-Ang**3):
 XXXX=            -21.07375067361172 YYYY=            -14.45839602322025 ZZZZ=            -15.91598868887886 XXXY=              0.00000000000000
 XXXZ=              0.00000000000000 YYYX=              0.00000000000000 YYYZ=              0.00000000000000 ZZZX=              0.00000000000000
 ZZZY=              0.00000000000000 XXYY=             -5.92187482162018 XXZZ=             -6.23571106097177 YYZZ=             -5.12035777535842
 XXYZ=              0.00000000000000 YYXZ=              0.00000000000000 ZZXY=              0.00000000000000
 N-N= 9.407594819378D+00 E-N=-9.666967559167D+02  KE= 3.984925213788D+02
 Symmetry A1   KE= 3.229597436967D+02
 Symmetry A2   KE= 4.581383681074D-35
 Symmetry B1   KE= 3.862632952450D+01
 Symmetry B2   KE= 3.690644815758D+01
                          Isotropic Fermi Contact Couplings
        Atom                 a.u.       MegaHertz       Gauss      10(-4) cm-1
     1  H(1)              -0.01095     -48.92864     -17.45895     -16.32084
     2  S(33)              0.05861      20.12934       7.18265       6.71442
 --------------------------------------------------------
       Center         ----  Spin Dipole Couplings  ----
                      3XX-RR        3YY-RR        3ZZ-RR
 --------------------------------------------------------
     1   Atom       -0.088687      0.065716      0.022970
     2   Atom       -2.049930      4.166946     -2.117016
 --------------------------------------------------------
                        XY            XZ            YZ
 --------------------------------------------------------
     1   Atom        0.000000      0.000000      0.000000
     2   Atom        0.000000      0.000000      0.000000
 --------------------------------------------------------


 ---------------------------------------------------------------------------------
              Anisotropic Spin Dipole Couplings in Principal Axis System
 ---------------------------------------------------------------------------------

       Atom             a.u.   MegaHertz   Gauss  10(-4) cm-1        Axes

              Baa    -0.0887   -47.319   -16.885   -15.784  1.0000  0.0000  0.0000
     1 H(1)   Bbb     0.0230    12.256     4.373     4.088  0.0000  0.0000  1.0000
              Bcc     0.0657    35.063    12.511    11.696  0.0000  1.0000  0.0000
 
              Baa    -2.1170   -86.796   -30.971   -28.952  0.0000  0.0000  1.0000
     2 S(33)  Bbb    -2.0499   -84.045   -29.989   -28.034  1.0000  0.0000  0.0000
              Bcc     4.1669   170.841    60.960    56.986  0.0000  1.0000  0.0000
 

 ---------------------------------------------------------------------------------

 Calling FoFJK, ICntrl=      2527 FMM=F ISym2X=1 I1Cent= 0 IOpClX= 0 NMat=1 NMatS=1 NMatT=0.
 ***** Axes restored to original set *****
 -------------------------------------------------------------------
 Center     Atomic                   Forces (Hartrees/Bohr)
 Number     Number              X              Y              Z
 -------------------------------------------------------------------
      1        1           0.000000000    0.000000000   -0.833990305
      2       16           0.000000000    0.000000000    0.833990305
 -------------------------------------------------------------------
 Cartesian Forces:  Max     0.833990305 RMS     0.481504527

 GradGradGradGradGradGradGradGradGradGradGradGradGradGradGradGradGradGrad
 Berny optimization.
 FormGI is forming the generalized inverse of G from B-inverse, IUseBI=4.
 Internal  Forces:  Max     0.833990305 RMS     0.833990305
 Search for a local minimum.
 Step number   1 out of a maximum of   20
 All quantities printed in internal units (Hartrees-Bohrs-Radians)
 Mixed Optimization -- RFO/linear search
 Second derivative matrix not updated -- first step.
 The second derivative matrix:
                          R1
           R1           1.53817
 ITU=  0
     Eigenvalues ---    1.53817
 RFO step:  Lambda=-3.65388513D-01 EMin= 1.53817387D+00
 Linear search not attempted -- first point.
 Maximum step size (   0.300) exceeded in Quadratic search.
    -- Step size scaled by   0.685
 Iteration  1 RMS(Cart)=  0.14142136 RMS(Int)=  0.10000000
 Iteration  2 RMS(Cart)=  0.07071068 RMS(Int)=  0.00000000
 Iteration  3 RMS(Cart)=  0.00000000 RMS(Int)=  0.00000000
 ClnCor:  largest displacement from symmetrization is 5.55D-17 for atom     1.
 Variable       Old X    -DE/DX   Delta X   Delta X   Delta X     New X
                                 (Linear)    (Quad)   (Total)
    R1        1.70075   0.83399   0.00000   0.30000   0.30000   2.00075
         Item               Value     Threshold  Converged?
 Maximum Force            0.833990     0.000450     NO 
 RMS     Force            0.833990     0.000300     NO 
 Maximum Displacement     0.150000     0.001800     NO 
 RMS     Displacement     0.212132     0.001200     NO 
 Predicted change in Energy=-1.809793D-01
 GradGradGradGradGradGradGradGradGradGradGradGradGradGradGradGradGradGrad

                          Input orientation:                          
 ---------------------------------------------------------------------
 Center     Atomic      Atomic             Coordinates (Angstroms)
 Number     Number       Type             X           Y           Z
 ---------------------------------------------------------------------
      1          1           0        0.000000    0.000000   -0.079377
      2         16           0        0.000000    0.000000    0.979377
 ---------------------------------------------------------------------
 Stoichiometry    HS(2)
 Framework group  C*V[C*(HS)]
 Deg. of freedom     1
 Full point group                 C*V     NOp   4
 Largest Abelian subgroup         C2V     NOp   4
 Largest concise Abelian subgroup C1      NOp   1
                         Standard orientation:                         
 ---------------------------------------------------------------------
 Center     Atomic      Atomic             Coordinates (Angstroms)
 Number     Number       Type             X           Y           Z
 ---------------------------------------------------------------------
      1          1           0        0.000000    0.000000   -0.996474
      2         16           0        0.000000    0.000000    0.062280
 ---------------------------------------------------------------------
 Rotational constants (GHZ):      0.0000000    461.4462541    461.4462541
 Standard basis: 6-31G(d,p) (6D, 7F)
 There are    13 symmetry adapted cartesian basis functions of A1  symmetry.
 There are     1 symmetry adapted cartesian basis functions of A2  symmetry.
 There are     5 symmetry adapted cartesian basis functions of B1  symmetry.
 There are     5 symmetry adapted cartesian basis functions of B2  symmetry.
 There are    13 symmetry adapted basis functions of A1  symmetry.
 There are     1 symmetry adapted basis functions of A2  symmetry.
 There are     5 symmetry adapted basis functions of B1  symmetry.
 There are     5 symmetry adapted basis functions of B2  symmetry.
    24 basis functions,    59 primitive gaussians,    24 cartesian basis functions
     9 alpha electrons        8 beta electrons
       nuclear repulsion energy         7.9969870568 Hartrees.
 NAtoms=    2 NActive=    2 NUniq=    2 SFac= 1.00D+00 NAtFMM=   60 NAOKFM=F Big=F
 Integral buffers will be    131072 words long.
 Raffenetti 2 integral format.
 Two-electron integral symmetry is turned on.
 One-electron integrals computed using PRISM.
 NBasis=    24 RedAO= T EigKep=  3.01D-02  NBF=    13     1     5     5
 NBsUse=    24 1.00D-06 EigRej= -1.00D+00 NBFU=    13     1     5     5
 Initial guess from the checkpoint file:  "/tmp/allouche/11912/Gau-16084.chk"
 B after Tr=     0.000000    0.000000    0.000000
         Rot=    1.000000    0.000000    0.000000    0.000000 Ang=   0.00 deg.
 Initial guess orbital symmetries:
 Alpha Orbitals:
       Occupied  (SG) (SG) (PI) (SG) (PI) (SG) (SG) (PI) (PI)
       Virtual   (?A) (?A) (?A) (?A) (SG) (?A) (SG) (SG) (?A) (PI)
                 (?B) (?B) (PI) (?B) (?B)
 Beta  Orbitals:
       Occupied  (SG) (SG) (SG) (PI) (PI) (SG) (SG) (?A)
       Virtual   (SG) (SG) (SG) (SG) (SG) (DLTA) (SG) (SG) (DLTA)
                 (?A) (?A) (?A) (?A) (?A) (?A) (?A)
 Initial guess <Sx>= 0.0000 <Sy>= 0.0000 <Sz>= 0.5000 <S**2>= 0.7519 S= 0.5009
 ExpMin= 1.17D-01 ExpMax= 2.19D+04 ExpMxC= 3.30D+03 IAcc=1 IRadAn=         1 AccDes= 0.00D+00
 Harris functional with IExCor=  402 and IRadAn=       1 diagonalized for initial guess.
 HarFok:  IExCor=  402 AccDes= 0.00D+00 IRadAn=         1 IDoV= 1 UseB2=F ITyADJ=14
 ICtDFT=  3500011 ScaDFX=  1.000000  1.000000  1.000000  1.000000
 FoFCou: FMM=F IPFlag=           0 FMFlag=      100000 FMFlg1=           0
         NFxFlg=           0 DoJE=T BraDBF=F KetDBF=T FulRan=T
         wScrn=  0.000000 ICntrl=     500 IOpCl=  0 I1Cent=   200000004 NGrid=           0
         NMat0=    1 NMatS0=      1 NMatT0=    0 NMatD0=    1 NMtDS0=    0 NMtDT0=    0
 Petite list used in FoFCou.
 Keep J ints in memory in symmetry-blocked form, NReq=926718.
 Requested convergence on RMS density matrix=1.00D-08 within 128 cycles.
 Requested convergence on MAX density matrix=1.00D-06.
 Requested convergence on             energy=1.00D-06.
 No special actions if energy rises.
 Integral accuracy reduced to 1.0D-05 until final iterations.
 Initial convergence to 1.0D-05 achieved.  Increase integral accuracy.
 SCF Done:  E(UB-LYP) =  -398.646314925     A.U. after   14 cycles
            NFock= 14  Conv=0.48D-08     -V/T= 2.0019
 <Sx>= 0.0000 <Sy>= 0.0000 <Sz>= 0.5000 <S**2>= 0.7518 S= 0.5009
 <L.S>= 0.000000000000E+00
 Annihilation of the first spin contaminant:
 S**2 before annihilation     0.7518,   after     0.7500
 Calling FoFJK, ICntrl=      2527 FMM=F ISym2X=1 I1Cent= 0 IOpClX= 0 NMat=1 NMatS=1 NMatT=0.
 ***** Axes restored to original set *****
 -------------------------------------------------------------------
 Center     Atomic                   Forces (Hartrees/Bohr)
 Number     Number              X              Y              Z
 -------------------------------------------------------------------
      1        1           0.000000000    0.000000000   -0.336192666
      2       16           0.000000000    0.000000000    0.336192666
 -------------------------------------------------------------------
 Cartesian Forces:  Max     0.336192666 RMS     0.194100926

 GradGradGradGradGradGradGradGradGradGradGradGradGradGradGradGradGradGrad
 Berny optimization.
 Using GEDIIS/GDIIS optimizer.
 Internal  Forces:  Max     0.336192666 RMS     0.336192666
 Search for a local minimum.
 Step number   2 out of a maximum of   20
 All quantities printed in internal units (Hartrees-Bohrs-Radians)
 Mixed Optimization -- RFO/linear search
 Update second derivatives using D2CorX and points    1    2
 DE= -1.66D-01 DEPred=-1.81D-01 R= 9.18D-01
 TightC=F SS=  1.41D+00  RLast= 3.00D-01 DXNew= 5.0454D-01 9.0000D-01
 Trust test= 9.18D-01 RLast= 3.00D-01 DXMaxT set to 5.05D-01
 The second derivative matrix:
                          R1
           R1           1.65933
 ITU=  1  0
 Use linear search instead of GDIIS.
 Linear search step of   1.133 exceeds DXMaxT=   0.505 scaled by   0.890
 Quartic linear search produced a step of  3.36359.
 Iteration  1 RMS(Cart)=  0.14142136 RMS(Int)=  0.80907570
 Iteration  2 RMS(Cart)=  0.14142136 RMS(Int)=  0.60907570
 Iteration  3 RMS(Cart)=  0.14142136 RMS(Int)=  0.40907570
 Iteration  4 RMS(Cart)=  0.14142136 RMS(Int)=  0.20907570
 Iteration  5 RMS(Cart)=  0.14142136 RMS(Int)=  0.00907570
 Iteration  6 RMS(Cart)=  0.00641749 RMS(Int)=  0.00000000
 Iteration  7 RMS(Cart)=  0.00000000 RMS(Int)=  0.00000000
 ClnCor:  largest displacement from symmetrization is 1.11D-16 for atom     1.
 Variable       Old X    -DE/DX   Delta X   Delta X   Delta X     New X
                                 (Linear)    (Quad)   (Total)
    R1        2.00075   0.33619   1.00908   0.00000   1.00908   3.00983
         Item               Value     Threshold  Converged?
 Maximum Force            0.336193     0.000450     NO 
 RMS     Force            0.336193     0.000300     NO 
 Maximum Displacement     0.504538     0.001800     NO 
 RMS     Displacement     0.713524     0.001200     NO 
 Predicted change in Energy=-5.055468D-01
 GradGradGradGradGradGradGradGradGradGradGradGradGradGradGradGradGradGrad

                          Input orientation:                          
 ---------------------------------------------------------------------
 Center     Atomic      Atomic             Coordinates (Angstroms)
 Number     Number       Type             X           Y           Z
 ---------------------------------------------------------------------
      1          1           0        0.000000    0.000000   -0.346367
      2         16           0        0.000000    0.000000    1.246367
 ---------------------------------------------------------------------
 Stoichiometry    HS(2)
 Framework group  C*V[C*(HS)]
 Deg. of freedom     1
 Full point group                 C*V     NOp   4
 Largest Abelian subgroup         C2V     NOp   4
 Largest concise Abelian subgroup C1      NOp   1
                         Standard orientation:                         
 ---------------------------------------------------------------------
 Center     Atomic      Atomic             Coordinates (Angstroms)
 Number     Number       Type             X           Y           Z
 ---------------------------------------------------------------------
      1          1           0        0.000000    0.000000   -1.499043
      2         16           0        0.000000    0.000000    0.093690
 ---------------------------------------------------------------------
 Rotational constants (GHZ):      0.0000000    203.9034605    203.9034605
 Standard basis: 6-31G(d,p) (6D, 7F)
 There are    13 symmetry adapted cartesian basis functions of A1  symmetry.
 There are     1 symmetry adapted cartesian basis functions of A2  symmetry.
 There are     5 symmetry adapted cartesian basis functions of B1  symmetry.
 There are     5 symmetry adapted cartesian basis functions of B2  symmetry.
 There are    13 symmetry adapted basis functions of A1  symmetry.
 There are     1 symmetry adapted basis functions of A2  symmetry.
 There are     5 symmetry adapted basis functions of B1  symmetry.
 There are     5 symmetry adapted basis functions of B2  symmetry.
    24 basis functions,    59 primitive gaussians,    24 cartesian basis functions
     9 alpha electrons        8 beta electrons
       nuclear repulsion energy         5.3159162337 Hartrees.
 NAtoms=    2 NActive=    2 NUniq=    2 SFac= 1.00D+00 NAtFMM=   60 NAOKFM=F Big=F
 Integral buffers will be    131072 words long.
 Raffenetti 2 integral format.
 Two-electron integral symmetry is turned on.
 One-electron integrals computed using PRISM.
 NBasis=    24 RedAO= T EigKep=  3.04D-02  NBF=    13     1     5     5
 NBsUse=    24 1.00D-06 EigRej= -1.00D+00 NBFU=    13     1     5     5
 Initial guess from the checkpoint file:  "/tmp/allouche/11912/Gau-16084.chk"
 B after Tr=     0.000000    0.000000    0.000000
         Rot=    1.000000    0.000000    0.000000    0.000000 Ang=   0.00 deg.
 Initial guess orbital symmetries:
 Alpha Orbitals:
       Occupied  (SG) (SG) (PI) (SG) (PI) (SG) (SG) (PI) (PI)
       Virtual   (?A) (?A) (?A) (SG) (?A) (?A) (?A) (SG) (?A) (?B)
                 (PI) (?B) (?B) (PI) (?B)
 Beta  Orbitals:
       Occupied  (SG) (SG) (SG) (PI) (PI) (SG) (SG) (?A)
       Virtual   (SG) (SG) (SG) (SG) (SG) (SG) (DLTA) (SG) (DLTA)
                 (?A) (?A) (?A) (?A) (?A) (?A) (?A)
 Initial guess <Sx>= 0.0000 <Sy>= 0.0000 <Sz>= 0.5000 <S**2>= 0.7522 S= 0.5011
 ExpMin= 1.17D-01 ExpMax= 2.19D+04 ExpMxC= 3.30D+03 IAcc=1 IRadAn=         1 AccDes= 0.00D+00
 Harris functional with IExCor=  402 and IRadAn=       1 diagonalized for initial guess.
 HarFok:  IExCor=  402 AccDes= 0.00D+00 IRadAn=         1 IDoV= 1 UseB2=F ITyADJ=14
 ICtDFT=  3500011 ScaDFX=  1.000000  1.000000  1.000000  1.000000
 FoFCou: FMM=F IPFlag=           0 FMFlag=      100000 FMFlg1=           0
         NFxFlg=           0 DoJE=T BraDBF=F KetDBF=T FulRan=T
         wScrn=  0.000000 ICntrl=     500 IOpCl=  0 I1Cent=   200000004 NGrid=           0
         NMat0=    1 NMatS0=      1 NMatT0=    0 NMatD0=    1 NMtDS0=    0 NMtDT0=    0
 Petite list used in FoFCou.
 Keep J ints in memory in symmetry-blocked form, NReq=926718.
 Requested convergence on RMS density matrix=1.00D-08 within 128 cycles.
 Requested convergence on MAX density matrix=1.00D-06.
 Requested convergence on             energy=1.00D-06.
 No special actions if energy rises.
 Integral accuracy reduced to 1.0D-05 until final iterations.
 Initial convergence to 1.0D-05 achieved.  Increase integral accuracy.
 SCF Done:  E(UB-LYP) =  -398.704627003     A.U. after   15 cycles
            NFock= 15  Conv=0.80D-08     -V/T= 2.0040
 <Sx>= 0.0000 <Sy>= 0.0000 <Sz>= 0.5000 <S**2>= 0.7525 S= 0.5012
 <L.S>= 0.000000000000E+00
 Annihilation of the first spin contaminant:
 S**2 before annihilation     0.7525,   after     0.7500
 Calling FoFJK, ICntrl=      2527 FMM=F ISym2X=1 I1Cent= 0 IOpClX= 0 NMat=1 NMatS=1 NMatT=0.
 ***** Axes restored to original set *****
 -------------------------------------------------------------------
 Center     Atomic                   Forces (Hartrees/Bohr)
 Number     Number              X              Y              Z
 -------------------------------------------------------------------
      1        1           0.000000000    0.000000000    0.059543075
      2       16           0.000000000    0.000000000   -0.059543075
 -------------------------------------------------------------------
 Cartesian Forces:  Max     0.059543075 RMS     0.034377210

 GradGradGradGradGradGradGradGradGradGradGradGradGradGradGradGradGradGrad
 Berny optimization.
 Using GEDIIS/GDIIS optimizer.
 Internal  Forces:  Max     0.059543075 RMS     0.059543075
 Search for a local minimum.
 Step number   3 out of a maximum of   20
 All quantities printed in internal units (Hartrees-Bohrs-Radians)
 Mixed Optimization -- RFO/linear search
 Update second derivatives using D2CorX and points    2    3
 The second derivative matrix:
                          R1
           R1           0.39218
 ITU=  0  1
 Use linear search instead of GDIIS.
     Eigenvalues ---    0.39218
 RFO step:  Lambda= 0.00000000D+00 EMin= 3.92176466D-01
 Quartic linear search produced a step of -0.44381.
 Iteration  1 RMS(Cart)=  0.14142136 RMS(Int)=  0.24783630
 Iteration  2 RMS(Cart)=  0.14142136 RMS(Int)=  0.04783630
 Iteration  3 RMS(Cart)=  0.03382537 RMS(Int)=  0.00000000
 Iteration  4 RMS(Cart)=  0.00000000 RMS(Int)=  0.00000000
 ClnCor:  largest displacement from symmetrization is 1.11D-16 for atom     1.
 Variable       Old X    -DE/DX   Delta X   Delta X   Delta X     New X
                                 (Linear)    (Quad)   (Total)
    R1        3.00983  -0.05954  -0.44784   0.00000  -0.44784   2.56199
         Item               Value     Threshold  Converged?
 Maximum Force            0.059543     0.000450     NO 
 RMS     Force            0.059543     0.000300     NO 
 Maximum Displacement     0.223918     0.001800     NO 
 RMS     Displacement     0.316668     0.001200     NO 
 Predicted change in Energy=-1.266139D-02
 GradGradGradGradGradGradGradGradGradGradGradGradGradGradGradGradGradGrad

                          Input orientation:                          
 ---------------------------------------------------------------------
 Center     Atomic      Atomic             Coordinates (Angstroms)
 Number     Number       Type             X           Y           Z
 ---------------------------------------------------------------------
      1          1           0        0.000000    0.000000   -0.227874
      2         16           0        0.000000    0.000000    1.127874
 ---------------------------------------------------------------------
 Stoichiometry    HS(2)
 Framework group  C*V[C*(HS)]
 Deg. of freedom     1
 Full point group                 C*V     NOp   4
 Largest Abelian subgroup         C2V     NOp   4
 Largest concise Abelian subgroup C1      NOp   1
                         Standard orientation:                         
 ---------------------------------------------------------------------
 Center     Atomic      Atomic             Coordinates (Angstroms)
 Number     Number       Type             X           Y           Z
 ---------------------------------------------------------------------
      1          1           0        0.000000    0.000000   -1.275998
      2         16           0        0.000000    0.000000    0.079750
 ---------------------------------------------------------------------
 Rotational constants (GHZ):      0.0000000    281.4183767    281.4183767
 Standard basis: 6-31G(d,p) (6D, 7F)
 There are    13 symmetry adapted cartesian basis functions of A1  symmetry.
 There are     1 symmetry adapted cartesian basis functions of A2  symmetry.
 There are     5 symmetry adapted cartesian basis functions of B1  symmetry.
 There are     5 symmetry adapted cartesian basis functions of B2  symmetry.
 There are    13 symmetry adapted basis functions of A1  symmetry.
 There are     1 symmetry adapted basis functions of A2  symmetry.
 There are     5 symmetry adapted basis functions of B1  symmetry.
 There are     5 symmetry adapted basis functions of B2  symmetry.
    24 basis functions,    59 primitive gaussians,    24 cartesian basis functions
     9 alpha electrons        8 beta electrons
       nuclear repulsion energy         6.2451382583 Hartrees.
 NAtoms=    2 NActive=    2 NUniq=    2 SFac= 1.00D+00 NAtFMM=   60 NAOKFM=F Big=F
 Integral buffers will be    131072 words long.
 Raffenetti 2 integral format.
 Two-electron integral symmetry is turned on.
 One-electron integrals computed using PRISM.
 NBasis=    24 RedAO= T EigKep=  3.00D-02  NBF=    13     1     5     5
 NBsUse=    24 1.00D-06 EigRej= -1.00D+00 NBFU=    13     1     5     5
 Initial guess from the checkpoint file:  "/tmp/allouche/11912/Gau-16084.chk"
 B after Tr=     0.000000    0.000000    0.000000
         Rot=    1.000000    0.000000    0.000000    0.000000 Ang=   0.00 deg.
 Initial guess orbital symmetries:
 Alpha Orbitals:
       Occupied  (SG) (SG) (PI) (SG) (PI) (SG) (SG) (PI) (PI)
       Virtual   (?A) (?A) (?A) (?A) (?A) (?A) (SG) (SG) (?A) (?B)
                 (?B) (?B) (?B) (?B) (?B)
 Beta  Orbitals:
       Occupied  (SG) (SG) (SG) (PI) (PI) (SG) (SG) (?A)
       Virtual   (?B) (SG) (SG) (SG) (SG) (?B) (?B) (SG) (?B) (?A)
                 (?A) (?A) (?A) (?A) (?A) (?A)
 Initial guess <Sx>= 0.0000 <Sy>= 0.0000 <Sz>= 0.5000 <S**2>= 0.7522 S= 0.5011
 ExpMin= 1.17D-01 ExpMax= 2.19D+04 ExpMxC= 3.30D+03 IAcc=1 IRadAn=         1 AccDes= 0.00D+00
 Harris functional with IExCor=  402 and IRadAn=       1 diagonalized for initial guess.
 HarFok:  IExCor=  402 AccDes= 0.00D+00 IRadAn=         1 IDoV= 1 UseB2=F ITyADJ=14
 ICtDFT=  3500011 ScaDFX=  1.000000  1.000000  1.000000  1.000000
 FoFCou: FMM=F IPFlag=           0 FMFlag=      100000 FMFlg1=           0
         NFxFlg=           0 DoJE=T BraDBF=F KetDBF=T FulRan=T
         wScrn=  0.000000 ICntrl=     500 IOpCl=  0 I1Cent=   200000004 NGrid=           0
         NMat0=    1 NMatS0=      1 NMatT0=    0 NMatD0=    1 NMtDS0=    0 NMtDT0=    0
 Petite list used in FoFCou.
 Keep J ints in memory in symmetry-blocked form, NReq=926718.
 Requested convergence on RMS density matrix=1.00D-08 within 128 cycles.
 Requested convergence on MAX density matrix=1.00D-06.
 Requested convergence on             energy=1.00D-06.
 No special actions if energy rises.
 Integral accuracy reduced to 1.0D-05 until final iterations.
 Initial convergence to 1.0D-05 achieved.  Increase integral accuracy.
 SCF Done:  E(UB-LYP) =  -398.720135888     A.U. after   13 cycles
            NFock= 13  Conv=0.86D-08     -V/T= 2.0035
 <Sx>= 0.0000 <Sy>= 0.0000 <Sz>= 0.5000 <S**2>= 0.7519 S= 0.5010
 <L.S>= 0.000000000000E+00
 Annihilation of the first spin contaminant:
 S**2 before annihilation     0.7519,   after     0.7500
 Calling FoFJK, ICntrl=      2527 FMM=F ISym2X=1 I1Cent= 0 IOpClX= 0 NMat=1 NMatS=1 NMatT=0.
 ***** Axes restored to original set *****
 -------------------------------------------------------------------
 Center     Atomic                   Forces (Hartrees/Bohr)
 Number     Number              X              Y              Z
 -------------------------------------------------------------------
      1        1           0.000000000    0.000000000   -0.004520949
      2       16           0.000000000    0.000000000    0.004520949
 -------------------------------------------------------------------
 Cartesian Forces:  Max     0.004520949 RMS     0.002610171

 GradGradGradGradGradGradGradGradGradGradGradGradGradGradGradGradGradGrad
 Berny optimization.
 Using GEDIIS/GDIIS optimizer.
 Internal  Forces:  Max     0.004520949 RMS     0.004520949
 Search for a local minimum.
 Step number   4 out of a maximum of   20
 All quantities printed in internal units (Hartrees-Bohrs-Radians)
 Mixed Optimization -- RFO/linear search
 Update second derivatives using D2CorX and points    3    4
 DE= -1.55D-02 DEPred=-1.27D-02 R= 1.22D+00
 TightC=F SS=  1.41D+00  RLast= 4.48D-01 DXNew= 8.4853D-01 1.3435D+00
 Trust test= 1.22D+00 RLast= 4.48D-01 DXMaxT set to 8.49D-01
 The second derivative matrix:
                          R1
           R1           0.14305
 ITU=  1  0
 Use linear search instead of GDIIS.
     Eigenvalues ---    0.14305
 RFO step:  Lambda= 0.00000000D+00 EMin= 1.43052326D-01
 Quartic linear search produced a step of -0.04134.
 Iteration  1 RMS(Cart)=  0.01309132 RMS(Int)=  0.00000000
 Iteration  2 RMS(Cart)=  0.00000000 RMS(Int)=  0.00000000
 ClnCor:  largest displacement from symmetrization is 0.00D+00 for atom     0.
 Variable       Old X    -DE/DX   Delta X   Delta X   Delta X     New X
                                 (Linear)    (Quad)   (Total)
    R1        2.56199   0.00452   0.01851   0.00000   0.01851   2.58051
         Item               Value     Threshold  Converged?
 Maximum Force            0.004521     0.000450     NO 
 RMS     Force            0.004521     0.000300     NO 
 Maximum Displacement     0.009257     0.001800     NO 
 RMS     Displacement     0.013091     0.001200     NO 
 Predicted change in Energy=-5.918380D-05
 GradGradGradGradGradGradGradGradGradGradGradGradGradGradGradGradGradGrad

                          Input orientation:                          
 ---------------------------------------------------------------------
 Center     Atomic      Atomic             Coordinates (Angstroms)
 Number     Number       Type             X           Y           Z
 ---------------------------------------------------------------------
      1          1           0        0.000000    0.000000   -0.232773
      2         16           0        0.000000    0.000000    1.132773
 ---------------------------------------------------------------------
 Stoichiometry    HS(2)
 Framework group  C*V[C*(HS)]
 Deg. of freedom     1
 Full point group                 C*V     NOp   4
 Largest Abelian subgroup         C2V     NOp   4
 Largest concise Abelian subgroup C1      NOp   1
                         Standard orientation:                         
 ---------------------------------------------------------------------
 Center     Atomic      Atomic             Coordinates (Angstroms)
 Number     Number       Type             X           Y           Z
 ---------------------------------------------------------------------
      1          1           0        0.000000    0.000000   -1.285219
      2         16           0        0.000000    0.000000    0.080326
 ---------------------------------------------------------------------
 Rotational constants (GHZ):      0.0000000    277.3947743    277.3947743
 Standard basis: 6-31G(d,p) (6D, 7F)
 There are    13 symmetry adapted cartesian basis functions of A1  symmetry.
 There are     1 symmetry adapted cartesian basis functions of A2  symmetry.
 There are     5 symmetry adapted cartesian basis functions of B1  symmetry.
 There are     5 symmetry adapted cartesian basis functions of B2  symmetry.
 There are    13 symmetry adapted basis functions of A1  symmetry.
 There are     1 symmetry adapted basis functions of A2  symmetry.
 There are     5 symmetry adapted basis functions of B1  symmetry.
 There are     5 symmetry adapted basis functions of B2  symmetry.
    24 basis functions,    59 primitive gaussians,    24 cartesian basis functions
     9 alpha electrons        8 beta electrons
       nuclear repulsion energy         6.2003323390 Hartrees.
 NAtoms=    2 NActive=    2 NUniq=    2 SFac= 1.00D+00 NAtFMM=   60 NAOKFM=F Big=F
 Integral buffers will be    131072 words long.
 Raffenetti 2 integral format.
 Two-electron integral symmetry is turned on.
 One-electron integrals computed using PRISM.
 NBasis=    24 RedAO= T EigKep=  3.00D-02  NBF=    13     1     5     5
 NBsUse=    24 1.00D-06 EigRej= -1.00D+00 NBFU=    13     1     5     5
 Initial guess from the checkpoint file:  "/tmp/allouche/11912/Gau-16084.chk"
 B after Tr=     0.000000    0.000000    0.000000
         Rot=    1.000000    0.000000    0.000000    0.000000 Ang=   0.00 deg.
 Initial guess orbital symmetries:
 Alpha Orbitals:
       Occupied  (SG) (SG) (PI) (SG) (PI) (SG) (SG) (PI) (PI)
       Virtual   (?A) (?A) (?A) (?A) (?A) (?A) (SG) (SG) (?A) (?B)
                 (?B) (?B) (?B) (?B) (?B)
 Beta  Orbitals:
       Occupied  (SG) (SG) (SG) (PI) (PI) (SG) (SG) (?A)
       Virtual   (?B) (SG) (SG) (SG) (SG) (?B) (SG) (SG) (?B) (?A)
                 (?A) (?A) (?A) (?A) (?A) (?A)
 Initial guess <Sx>= 0.0000 <Sy>= 0.0000 <Sz>= 0.5000 <S**2>= 0.7519 S= 0.5010
 Keep J ints in memory in symmetry-blocked form, NReq=926718.
 Requested convergence on RMS density matrix=1.00D-08 within 128 cycles.
 Requested convergence on MAX density matrix=1.00D-06.
 Requested convergence on             energy=1.00D-06.
 No special actions if energy rises.
 SCF Done:  E(UB-LYP) =  -398.720175832     A.U. after    8 cycles
            NFock=  8  Conv=0.54D-08     -V/T= 2.0036
 <Sx>= 0.0000 <Sy>= 0.0000 <Sz>= 0.5000 <S**2>= 0.7519 S= 0.5010
 <L.S>= 0.000000000000E+00
 Annihilation of the first spin contaminant:
 S**2 before annihilation     0.7519,   after     0.7500
 Calling FoFJK, ICntrl=      2527 FMM=F ISym2X=1 I1Cent= 0 IOpClX= 0 NMat=1 NMatS=1 NMatT=0.
 ***** Axes restored to original set *****
 -------------------------------------------------------------------
 Center     Atomic                   Forces (Hartrees/Bohr)
 Number     Number              X              Y              Z
 -------------------------------------------------------------------
      1        1           0.000000000    0.000000000    0.000166385
      2       16           0.000000000    0.000000000   -0.000166385
 -------------------------------------------------------------------
 Cartesian Forces:  Max     0.000166385 RMS     0.000096063

 GradGradGradGradGradGradGradGradGradGradGradGradGradGradGradGradGradGrad
 Berny optimization.
 Using GEDIIS/GDIIS optimizer.
 Internal  Forces:  Max     0.000166385 RMS     0.000166385
 Search for a local minimum.
 Step number   5 out of a maximum of   20
 All quantities printed in internal units (Hartrees-Bohrs-Radians)
 Mixed Optimization -- En-DIIS/RFO-DIIS
 Update second derivatives using D2CorX and points    4    5
 DE= -3.99D-05 DEPred=-5.92D-05 R= 6.75D-01
 TightC=F SS=  1.41D+00  RLast= 1.85D-02 DXNew= 1.4270D+00 5.5542D-02
 Trust test= 6.75D-01 RLast= 1.85D-02 DXMaxT set to 8.49D-01
 The second derivative matrix:
                          R1
           R1           0.25318
 ITU=  1  1
 Use linear search instead of GDIIS.
     Eigenvalues ---    0.25318
 RFO step:  Lambda= 0.00000000D+00 EMin= 2.53178948D-01
 Quartic linear search produced a step of -0.03638.
 Iteration  1 RMS(Cart)=  0.00047625 RMS(Int)=  0.00000000
 Iteration  2 RMS(Cart)=  0.00000000 RMS(Int)=  0.00000000
 ClnCor:  largest displacement from symmetrization is 0.00D+00 for atom     0.
 Variable       Old X    -DE/DX   Delta X   Delta X   Delta X     New X
                                 (Linear)    (Quad)   (Total)
    R1        2.58051  -0.00017  -0.00067   0.00000  -0.00067   2.57983
         Item               Value     Threshold  Converged?
 Maximum Force            0.000166     0.000450     YES
 RMS     Force            0.000166     0.000300     YES
 Maximum Displacement     0.000337     0.001800     YES
 RMS     Displacement     0.000476     0.001200     YES
 Predicted change in Energy=-5.463920D-08
 Optimization completed.
    -- Stationary point found.
                           ----------------------------
                           !   Optimized Parameters   !
                           ! (Angstroms and Degrees)  !
 --------------------------                            --------------------------
 ! Name  Definition              Value          Derivative Info.                !
 --------------------------------------------------------------------------------
 ! R1    R(1,2)                  1.3655         -DE/DX =   -0.0002              !
 --------------------------------------------------------------------------------
 GradGradGradGradGradGradGradGradGradGradGradGradGradGradGradGradGradGrad

                          Input orientation:                          
 ---------------------------------------------------------------------
 Center     Atomic      Atomic             Coordinates (Angstroms)
 Number     Number       Type             X           Y           Z
 ---------------------------------------------------------------------
      1          1           0        0.000000    0.000000   -0.232773
      2         16           0        0.000000    0.000000    1.132773
 ---------------------------------------------------------------------
 Stoichiometry    HS(2)
 Framework group  C*V[C*(HS)]
 Deg. of freedom     1
 Full point group                 C*V     NOp   4
 Largest Abelian subgroup         C2V     NOp   4
 Largest concise Abelian subgroup C1      NOp   1
                         Standard orientation:                         
 ---------------------------------------------------------------------
 Center     Atomic      Atomic             Coordinates (Angstroms)
 Number     Number       Type             X           Y           Z
 ---------------------------------------------------------------------
      1          1           0        0.000000    0.000000   -1.285219
      2         16           0        0.000000    0.000000    0.080326
 ---------------------------------------------------------------------
 Rotational constants (GHZ):      0.0000000    277.3947743    277.3947743

 **********************************************************************

            Population analysis using the SCF density.

 **********************************************************************

 Orbital symmetries:
 Alpha Orbitals:
       Occupied  (SG) (SG) (PI) (SG) (PI) (SG) (SG) (PI) (PI)
       Virtual   (SG) (SG) (SG) (PI) (PI) (PI) (?A) (PI) (?A) (?A)
                 (?A) (PI) (PI) (SG) (SG)
 Beta  Orbitals:
       Occupied  (SG) (SG) (SG) (PI) (PI) (SG) (SG) (PI)
       Virtual   (PI) (SG) (SG) (SG) (PI) (PI) (?A) (PI) (PI) (?A)
                 (?A) (SG) (PI) (PI) (SG) (SG)
 Unable to determine electronic state:  partially filled degenerate orbitals.
 Alpha  occ. eigenvalues --  -88.16599  -7.70676  -5.74334  -5.73535  -5.72456
 Alpha  occ. eigenvalues --   -0.66065  -0.36372  -0.27313  -0.22723
 Alpha virt. eigenvalues --    0.00238   0.24683   0.29657   0.30301   0.32919
 Alpha virt. eigenvalues --    0.63895   0.64873   0.67776   0.68634   0.69235
 Alpha virt. eigenvalues --    1.00958   1.99297   2.00123   2.60644   3.82809
  Beta  occ. eigenvalues --  -88.16141  -7.70232  -5.73251  -5.73074  -5.72178
  Beta  occ. eigenvalues --   -0.63119  -0.35212  -0.21437
  Beta virt. eigenvalues --   -0.20773   0.01241   0.26099   0.30378   0.33511
  Beta virt. eigenvalues --    0.33741   0.66366   0.68547   0.69096   0.73761
  Beta virt. eigenvalues --    0.74489   1.01998   1.99545   1.99748   2.60807
  Beta virt. eigenvalues --    3.84827
          Condensed to atoms (all electrons):
               1          2
     1  H    0.678323   0.247704
     2  S    0.247704  15.826270
          Atomic-Atomic Spin Densities.
               1          2
     1  H   -0.024478  -0.001898
     2  S   -0.001898   1.028273
 Mulliken charges and spin densities:
               1          2
     1  H    0.073974  -0.026375
     2  S   -0.073974   1.026375
 Sum of Mulliken charges =   0.00000   1.00000
 Mulliken charges and spin densities with hydrogens summed into heavy atoms:
               1          2
     2  S    0.000000   1.000000
 Electronic spatial extent (au):  <R**2>=             36.3408
 Charge=              0.00000000000000 electrons
 Dipole moment (field-independent basis, Debye):
    X=              0.00000000000000    Y=              0.00000000000000    Z=             -1.02021177490296  Tot=              1.02021177490296
 Quadrupole moment (field-independent basis, Debye-Ang):
   XX=            -15.64489957055549   YY=            -12.80723501531355   ZZ=            -11.99769421644401
   XY=              0.00000000000000   XZ=              0.00000000000000   YZ=              0.00000000000000
 Traceless Quadrupole moment (field-independent basis, Debye-Ang):
   XX=             -2.16162330311781   YY=              0.67604125212413   ZZ=              1.48558205099368
   XY=              0.00000000000000   XZ=              0.00000000000000   YZ=              0.00000000000000
 Octapole moment (field-independent basis, Debye-Ang**2):
  XXX=              0.00000000000000  YYY=              0.00000000000000  ZZZ=             -1.56822344558905  XYY=              0.00000000000000
  XXY=              0.00000000000000  XXZ=             -0.41747086822093  XZZ=              0.00000000000000  YZZ=              0.00000000000000
  YYZ=             -0.21683741703035  XYZ=              0.00000000000000
 Hexadecapole moment (field-independent basis, Debye-Ang**3):
 XXXX=            -22.01740540178528 YYYY=            -15.20966657734190 ZZZZ=            -21.10759065755325 XXXY=              0.00000000000000
 XXXZ=              0.00000000000000 YYYX=              0.00000000000000 YYYZ=              0.00000000000000 ZZZX=              0.00000000000000
 ZZZY=              0.00000000000000 XXYY=             -6.20435668136010 XXZZ=             -7.65209532298306 YYZZ=             -6.49670083647622
 XXYZ=              0.00000000000000 YYXZ=              0.00000000000000 ZZXY=              0.00000000000000
 N-N= 6.200332338988D+00 E-N=-9.597920233894D+02  KE= 3.973065548732D+02
 Symmetry A1   KE= 3.218213341465D+02
 Symmetry A2   KE= 4.755520685925D-35
 Symmetry B1   KE= 3.858801326615D+01
 Symmetry B2   KE= 3.689720746055D+01
                          Isotropic Fermi Contact Couplings
        Atom                 a.u.       MegaHertz       Gauss      10(-4) cm-1
     1  H(1)              -0.00971     -43.40522     -15.48806     -14.47842
     2  S(33)              0.04711      16.18235       5.77427       5.39785
 --------------------------------------------------------
       Center         ----  Spin Dipole Couplings  ----
                      3XX-RR        3YY-RR        3ZZ-RR
 --------------------------------------------------------
     1   Atom       -0.041194     -0.000157      0.041350
     2   Atom       -2.049315      4.077335     -2.028021
 --------------------------------------------------------
                        XY            XZ            YZ
 --------------------------------------------------------
     1   Atom        0.000000      0.000000      0.000000
     2   Atom        0.000000      0.000000      0.000000
 --------------------------------------------------------


 ---------------------------------------------------------------------------------
              Anisotropic Spin Dipole Couplings in Principal Axis System
 ---------------------------------------------------------------------------------

       Atom             a.u.   MegaHertz   Gauss  10(-4) cm-1        Axes

              Baa    -0.0412   -21.979    -7.843    -7.331  1.0000  0.0000  0.0000
     1 H(1)   Bbb    -0.0002    -0.084    -0.030    -0.028  0.0000  1.0000  0.0000
              Bcc     0.0414    22.062     7.872     7.359  0.0000  0.0000  1.0000
 
              Baa    -2.0493   -84.020   -29.980   -28.026  1.0000  0.0000  0.0000
     2 S(33)  Bbb    -2.0280   -83.147   -29.669   -27.735  0.0000  0.0000  1.0000
              Bcc     4.0773   167.167    59.649    55.761  0.0000  1.0000  0.0000
 

 ---------------------------------------------------------------------------------

 1\1\GINC-ILMFIXE086\FOpt\UBLYP\6-31G(d,p)\H1S1(2)\ALLOUCHE\14-Feb-2018
 \0\\# BLYP/6-31G** Opt Freq\\Gaussian file generated by cchemi\\0,2\H,
 0.,0.,-0.2327727027\S,0.,0.,1.1327727027\\Version=EM64L-G09RevD.01\HF=
 -398.7201758\S2=0.751917\S2-1=0.\S2A=0.750001\RMSD=5.432e-09\RMSF=9.60
 6e-05\Dipole=0.,0.,-0.4013822\Quadrupole=-1.607114,0.5026201,1.1044939
 ,0.,0.,0.\PG=C*V [C*(H1S1)]\\@


 NO SCIENCE HAS EVER MADE MORE RAPID PROGRESS IN A
 SHORTER TIME THAN CHEMISTRY.
   -- MARTIN HEINRICH KLOPROTH, 1791
 (FIRST PROFESSOR OF CHEMISTRY AT THE UNIVERSITY OF BERLIN)
 Job cpu time:       0 days  0 hours  0 minutes  9.3 seconds.
 File lengths (MBytes):  RWF=      5 Int=      0 D2E=      0 Chk=      1 Scr=      1
 Normal termination of Gaussian 09 at Wed Feb 14 17:10:55 2018.
 Link1:  Proceeding to internal job step number  2.
 ---------------------------------------------------------------------
 #N Geom=AllCheck Guess=TCheck SCRF=Check GenChk UBLYP/6-31G(d,p) Freq
 ---------------------------------------------------------------------
 1/10=4,29=7,30=1,38=1,40=1/1,3;
 2/12=2,40=1/2;
 3/5=1,6=6,7=101,11=2,14=-4,16=1,25=1,30=1,70=2,71=2,74=402,116=2,140=1/1,2,3;
 4/5=101/1;
 5/5=2,98=1/2;
 8/6=4,10=90,11=11/1;
 11/6=1,8=1,9=11,15=111,16=1/1,2,10;
 10/6=1/2;
 6/7=2,8=2,9=2,10=2,18=1,28=1/1;
 7/8=1,10=1,25=1/1,2,3,16;
 1/10=4,30=1/3;
 99//99;
 Structure from the checkpoint file:  "/tmp/allouche/11912/Gau-16084.chk"
 ---------------------------------
 Gaussian file generated by cchemi
 ---------------------------------
 Charge =  0 Multiplicity = 2
 Redundant internal coordinates found in file.
 H,0,0.,0.,-0.2327727027
 S,0,0.,0.,1.1327727027
 Recover connectivity data from disk.

 GradGradGradGradGradGradGradGradGradGradGradGradGradGradGradGradGradGrad
 Berny optimization.
 Initialization pass.
                           ----------------------------
                           !    Initial Parameters    !
                           ! (Angstroms and Degrees)  !
 --------------------------                            --------------------------
 ! Name  Definition              Value          Derivative Info.                !
 --------------------------------------------------------------------------------
 ! R1    R(1,2)                  1.3655         calculate D2E/DX2 analytically  !
 --------------------------------------------------------------------------------
 Trust Radius=3.00D-01 FncErr=1.00D-07 GrdErr=1.00D-07
 Number of steps in this run=      2 maximum allowed number of steps=      2.
 GradGradGradGradGradGradGradGradGradGradGradGradGradGradGradGradGradGrad

                          Input orientation:                          
 ---------------------------------------------------------------------
 Center     Atomic      Atomic             Coordinates (Angstroms)
 Number     Number       Type             X           Y           Z
 ---------------------------------------------------------------------
      1          1           0        0.000000    0.000000   -0.232773
      2         16           0        0.000000    0.000000    1.132773
 ---------------------------------------------------------------------
 Stoichiometry    HS(2)
 Framework group  C*V[C*(HS)]
 Deg. of freedom     1
 Full point group                 C*V     NOp   4
 Largest Abelian subgroup         C2V     NOp   4
 Largest concise Abelian subgroup C1      NOp   1
                         Standard orientation:                         
 ---------------------------------------------------------------------
 Center     Atomic      Atomic             Coordinates (Angstroms)
 Number     Number       Type             X           Y           Z
 ---------------------------------------------------------------------
      1          1           0        0.000000    0.000000   -1.285219
      2         16           0        0.000000    0.000000    0.080326
 ---------------------------------------------------------------------
 Rotational constants (GHZ):      0.0000000    277.3947743    277.3947743
 Standard basis: 6-31G(d,p) (6D, 7F)
 There are    13 symmetry adapted cartesian basis functions of A1  symmetry.
 There are     1 symmetry adapted cartesian basis functions of A2  symmetry.
 There are     5 symmetry adapted cartesian basis functions of B1  symmetry.
 There are     5 symmetry adapted cartesian basis functions of B2  symmetry.
 There are    13 symmetry adapted basis functions of A1  symmetry.
 There are     1 symmetry adapted basis functions of A2  symmetry.
 There are     5 symmetry adapted basis functions of B1  symmetry.
 There are     5 symmetry adapted basis functions of B2  symmetry.
    24 basis functions,    59 primitive gaussians,    24 cartesian basis functions
     9 alpha electrons        8 beta electrons
       nuclear repulsion energy         6.2003323390 Hartrees.
 NAtoms=    2 NActive=    2 NUniq=    2 SFac= 1.00D+00 NAtFMM=   60 NAOKFM=F Big=F
 Integral buffers will be    131072 words long.
 Raffenetti 2 integral format.
 Two-electron integral symmetry is turned on.
 One-electron integrals computed using PRISM.
 NBasis=    24 RedAO= T EigKep=  3.00D-02  NBF=    13     1     5     5
 NBsUse=    24 1.00D-06 EigRej= -1.00D+00 NBFU=    13     1     5     5
 Initial guess from the checkpoint file:  "/tmp/allouche/11912/Gau-16084.chk"
 B after Tr=     0.000000    0.000000    0.000000
         Rot=    1.000000    0.000000    0.000000    0.000000 Ang=   0.00 deg.
 Initial guess orbital symmetries:
 Alpha Orbitals:
       Occupied  (SG) (SG) (PI) (SG) (PI) (SG) (SG) (PI) (PI)
       Virtual   (SG) (SG) (SG) (PI) (PI) (PI) (?A) (PI) (?A) (?A)
                 (?A) (PI) (PI) (SG) (SG)
 Beta  Orbitals:
       Occupied  (SG) (SG) (SG) (PI) (PI) (SG) (SG) (PI)
       Virtual   (PI) (SG) (SG) (SG) (PI) (PI) (?A) (PI) (PI) (?A)
                 (?A) (SG) (PI) (PI) (SG) (SG)
 Initial guess <Sx>= 0.0000 <Sy>= 0.0000 <Sz>= 0.5000 <S**2>= 0.7519 S= 0.5010
 Keep J ints in memory in symmetry-blocked form, NReq=926718.
 Requested convergence on RMS density matrix=1.00D-08 within 128 cycles.
 Requested convergence on MAX density matrix=1.00D-06.
 Requested convergence on             energy=1.00D-06.
 No special actions if energy rises.
 SCF Done:  E(UB-LYP) =  -398.720175832     A.U. after    1 cycles
            NFock=  1  Conv=0.52D-09     -V/T= 2.0036
 <Sx>= 0.0000 <Sy>= 0.0000 <Sz>= 0.5000 <S**2>= 0.7519 S= 0.5010
 <L.S>= 0.000000000000E+00
 Annihilation of the first spin contaminant:
 S**2 before annihilation     0.7519,   after     0.7500
 Range of M.O.s used for correlation:     1    24
 NBasis=    24 NAE=     9 NBE=     8 NFC=     0 NFV=     0
 NROrb=     24 NOA=     9 NOB=     8 NVA=    15 NVB=    16

 **** Warning!!: The smallest beta delta epsilon is  0.66394515D-02

 Symmetrizing basis deriv contribution to polar:
 IMax=3 JMax=2 DiffMx= 0.00D+00
 G2DrvN: will do     3 centers at a time, making    1 passes.
 Calling FoFCou, ICntrl=  3507 FMM=F I1Cent=   0 AccDes= 0.00D+00.
 End of G2Drv F.D. properties file   721 does not exist.
 End of G2Drv F.D. properties file   722 does not exist.
 End of G2Drv F.D. properties file   788 does not exist.
          IDoAtm=11
          Differentiating once with respect to electric field.
                with respect to dipole field.
          Differentiating once with respect to nuclear coordinates.
 Keep J ints in memory in symmetry-blocked form, NReq=905340.
          There are     9 degrees of freedom in the 1st order CPHF.  IDoFFX=6 NUNeed=     3.
      6 vectors produced by pass  0 Test12= 2.92D-15 1.11D-08 XBig12= 3.63D+01 4.15D+00.
 AX will form     6 AO Fock derivatives at one time.
      6 vectors produced by pass  1 Test12= 2.92D-15 1.11D-08 XBig12= 2.90D+00 7.91D-01.
      6 vectors produced by pass  2 Test12= 2.92D-15 1.11D-08 XBig12= 3.37D-02 7.54D-02.
      6 vectors produced by pass  3 Test12= 2.92D-15 1.11D-08 XBig12= 6.76D-05 4.53D-03.
      6 vectors produced by pass  4 Test12= 2.92D-15 1.11D-08 XBig12= 9.13D-07 4.06D-04.
      6 vectors produced by pass  5 Test12= 2.92D-15 1.11D-08 XBig12= 3.17D-09 1.76D-05.
      4 vectors produced by pass  6 Test12= 2.92D-15 1.11D-08 XBig12= 2.13D-11 1.74D-06.
      2 vectors produced by pass  7 Test12= 2.92D-15 1.11D-08 XBig12= 9.39D-14 1.21D-07.
 InvSVY:  IOpt=1 It=  1 EMax= 2.22D-16
 Solved reduced A of dimension    42 with     6 vectors.
 Isotropic polarizability for W=    0.000000       11.77 Bohr**3.
 End of Minotr F.D. properties file   721 does not exist.
 End of Minotr F.D. properties file   722 does not exist.
 End of Minotr F.D. properties file   788 does not exist.

 **********************************************************************

            Population analysis using the SCF density.

 **********************************************************************

 Orbital symmetries:
 Alpha Orbitals:
       Occupied  (SG) (SG) (PI) (SG) (PI) (SG) (SG) (PI) (PI)
       Virtual   (SG) (SG) (SG) (PI) (PI) (PI) (?A) (PI) (?A) (?A)
                 (?A) (PI) (PI) (SG) (SG)
 Beta  Orbitals:
       Occupied  (SG) (SG) (SG) (PI) (PI) (SG) (SG) (PI)
       Virtual   (PI) (SG) (SG) (SG) (PI) (PI) (?A) (PI) (PI) (?A)
                 (?A) (SG) (PI) (PI) (SG) (SG)
 Unable to determine electronic state:  partially filled degenerate orbitals.
 Alpha  occ. eigenvalues --  -88.16599  -7.70676  -5.74334  -5.73535  -5.72456
 Alpha  occ. eigenvalues --   -0.66065  -0.36372  -0.27313  -0.22723
 Alpha virt. eigenvalues --    0.00238   0.24683   0.29657   0.30301   0.32919
 Alpha virt. eigenvalues --    0.63895   0.64873   0.67776   0.68634   0.69235
 Alpha virt. eigenvalues --    1.00958   1.99297   2.00123   2.60644   3.82809
  Beta  occ. eigenvalues --  -88.16141  -7.70232  -5.73251  -5.73074  -5.72178
  Beta  occ. eigenvalues --   -0.63119  -0.35212  -0.21437
  Beta virt. eigenvalues --   -0.20773   0.01241   0.26099   0.30378   0.33511
  Beta virt. eigenvalues --    0.33741   0.66366   0.68547   0.69096   0.73761
  Beta virt. eigenvalues --    0.74489   1.01998   1.99545   1.99748   2.60807
  Beta virt. eigenvalues --    3.84827
          Condensed to atoms (all electrons):
               1          2
     1  H    0.678323   0.247704
     2  S    0.247704  15.826270
          Atomic-Atomic Spin Densities.
               1          2
     1  H   -0.024478  -0.001898
     2  S   -0.001898   1.028273
 Mulliken charges and spin densities:
               1          2
     1  H    0.073974  -0.026375
     2  S   -0.073974   1.026375
 Sum of Mulliken charges =   0.00000   1.00000
 Mulliken charges and spin densities with hydrogens summed into heavy atoms:
               1          2
     2  S    0.000000   1.000000
 APT charges:
               1
     1  H    0.061835
     2  S   -0.061835
 Sum of APT charges =   0.00000
 APT charges with hydrogens summed into heavy atoms:
               1
     2  S    0.000000
 Electronic spatial extent (au):  <R**2>=             36.3408
 Charge=             -0.00000000000001 electrons
 Dipole moment (field-independent basis, Debye):
    X=              0.00000000000000    Y=              0.00000000000000    Z=             -1.02021172795770  Tot=              1.02021172795770
 Quadrupole moment (field-independent basis, Debye-Ang):
   XX=            -15.64489951831989   YY=            -12.80723497697578   ZZ=            -11.99769418142787
   XY=              0.00000000000000   XZ=              0.00000000000000   YZ=              0.00000000000000
 Traceless Quadrupole moment (field-independent basis, Debye-Ang):
   XX=             -2.16162329274538   YY=              0.67604124859874   ZZ=              1.48558204414664
   XY=              0.00000000000000   XZ=              0.00000000000000   YZ=              0.00000000000000
 Octapole moment (field-independent basis, Debye-Ang**2):
  XXX=              0.00000000000000  YYY=              0.00000000000000  ZZZ=             -1.56822336729918  XYY=              0.00000000000000
  XXY=              0.00000000000000  XXZ=             -0.41747085193913  XZZ=              0.00000000000000  YZZ=              0.00000000000000
  YYZ=             -0.21683740131400  XYZ=              0.00000000000000
 Hexadecapole moment (field-independent basis, Debye-Ang**3):
 XXXX=            -22.01740523668090 YYYY=            -15.20966647217346 ZZZZ=            -21.10759057815267 XXXY=              0.00000000000000
 XXXZ=              0.00000000000000 YYYX=              0.00000000000000 YYYZ=              0.00000000000000 ZZZX=              0.00000000000000
 ZZZY=              0.00000000000000 XXYY=             -6.20435663631737 XXZZ=             -7.65209527463352 YYZZ=             -6.49670079803723
 XXYZ=              0.00000000000000 YYXZ=              0.00000000000000 ZZXY=              0.00000000000000
 N-N= 6.200332338988D+00 E-N=-9.597920234948D+02  KE= 3.973065549164D+02
 Symmetry A1   KE= 3.218213341660D+02
 Symmetry A2   KE= 4.755520601853D-35
 Symmetry B1   KE= 3.858801328250D+01
 Symmetry B2   KE= 3.689720746790D+01
  Exact polarizability:   9.439   0.000   9.024   0.000   0.000  16.859
 Approx polarizability:  12.258   0.000  13.793   0.000   0.000  28.634
                          Isotropic Fermi Contact Couplings
        Atom                 a.u.       MegaHertz       Gauss      10(-4) cm-1
     1  H(1)              -0.00971     -43.40523     -15.48806     -14.47843
     2  S(33)              0.04711      16.18236       5.77427       5.39785
 --------------------------------------------------------
       Center         ----  Spin Dipole Couplings  ----
                      3XX-RR        3YY-RR        3ZZ-RR
 --------------------------------------------------------
     1   Atom       -0.041194     -0.000157      0.041350
     2   Atom       -2.049315      4.077335     -2.028021
 --------------------------------------------------------
                        XY            XZ            YZ
 --------------------------------------------------------
     1   Atom        0.000000      0.000000      0.000000
     2   Atom        0.000000      0.000000      0.000000
 --------------------------------------------------------


 ---------------------------------------------------------------------------------
              Anisotropic Spin Dipole Couplings in Principal Axis System
 ---------------------------------------------------------------------------------

       Atom             a.u.   MegaHertz   Gauss  10(-4) cm-1        Axes

              Baa    -0.0412   -21.979    -7.843    -7.331  1.0000  0.0000  0.0000
     1 H(1)   Bbb    -0.0002    -0.084    -0.030    -0.028  0.0000  1.0000  0.0000
              Bcc     0.0414    22.062     7.872     7.359  0.0000  0.0000  1.0000
 
              Baa    -2.0493   -84.020   -29.980   -28.026  1.0000  0.0000  0.0000
     2 S(33)  Bbb    -2.0280   -83.147   -29.669   -27.735  0.0000  0.0000  1.0000
              Bcc     4.0773   167.167    59.649    55.761  0.0000  1.0000  0.0000
 

 ---------------------------------------------------------------------------------

 Calling FoFJK, ICntrl=    100527 FMM=F ISym2X=1 I1Cent= 0 IOpClX= 0 NMat=1 NMatS=1 NMatT=0.
 Full mass-weighted force constant matrix:
 Low frequencies ---    0.0037    0.0038    0.0059   83.9854   91.7608 2583.5279
 Diagonal vibrational polarizability:
        0.0000000       0.0000000       0.0634103
 Harmonic frequencies (cm**-1), IR intensities (KM/Mole), Raman scattering
 activities (A**4/AMU), depolarization ratios for plane and unpolarized
 incident light, reduced masses (AMU), force constants (mDyne/A),
 and normal coordinates:
                      1
                     SG
 Frequencies --   2583.52786460708500
 Red. masses --      1.03856178589580
 Frc consts  --      4.08421695751614
 IR Inten    --     15.72725595277584
  Atom  AN      X      Y      Z
     1   1     0.000000000000   0.000000000000   0.999503550326
     2  16     0.000000000000   0.000000000000  -0.031506394358

 -------------------
 - Thermochemistry -
 -------------------
 Temperature   298.150 Kelvin.  Pressure   1.00000 Atm.
 Atom     1 has atomic number  1 and mass   1.00783
 Atom     2 has atomic number 16 and mass  31.97207
 Molecular mass:    32.97990 amu.
 Principal axes and moments of inertia in atomic units:
                           1         2         3
     Eigenvalues --     0.00000   6.50604   6.50604
           X            0.00000   0.00000   1.00000
           Y            0.00000   1.00000   0.00000
           Z            1.00000   0.00000   0.00000
 This molecule is a prolate symmetric top.
 Rotational symmetry number  1.
 Rotational temperature (Kelvin)     13.31283
 Rotational constant (GHZ):         277.394774
 Zero-point vibrational energy      15452.9 (Joules/Mol)
                                    3.69334 (Kcal/Mol)
 Vibrational temperatures:   3717.12
          (Kelvin)
 
 Zero-point correction=                           0.005886 (Hartree/Particle)
 Thermal correction to Energy=                    0.008246
 Thermal correction to Enthalpy=                  0.009190
 Thermal correction to Gibbs Free Energy=        -0.012644
 Sum of electronic and zero-point Energies=           -398.714290
 Sum of electronic and thermal Energies=              -398.711930
 Sum of electronic and thermal Enthalpies=            -398.710985
 Sum of electronic and thermal Free Energies=         -398.732820
 
                     E (Thermal)             CV                S
                      KCal/Mol        Cal/Mol-Kelvin    Cal/Mol-Kelvin
 Total                    5.175              4.969             45.954
 Electronic               0.000              0.000              1.377
 Translational            0.889              2.981             36.412
 Rotational               0.592              1.987              8.165
 Vibrational              3.693              0.001              0.000
                       Q            Log10(Q)             Ln(Q)
 Total Bot       0.654323D+06          5.815792         13.391357
 Total V=0       0.333446D+09          8.523025         19.624991
 Vib (Bot)       0.196232D-02         -2.707231         -6.233630
 Vib (V=0)       0.100000D+01          0.000002          0.000004
 Electronic      0.200000D+01          0.301030          0.693147
 Translational   0.744439D+07          6.871829         15.822971
 Rotational      0.223957D+02          1.350164          3.108868
 ***** Axes restored to original set *****
 -------------------------------------------------------------------
 Center     Atomic                   Forces (Hartrees/Bohr)
 Number     Number              X              Y              Z
 -------------------------------------------------------------------
      1        1           0.000000000    0.000000000    0.000166384
      2       16           0.000000000    0.000000000   -0.000166384
 -------------------------------------------------------------------
 Cartesian Forces:  Max     0.000166384 RMS     0.000096062
 FormGI is forming the generalized inverse of G from B-inverse, IUseBI=4.

 GradGradGradGradGradGradGradGradGradGradGradGradGradGradGradGradGradGrad
 Berny optimization.
 Internal  Forces:  Max     0.000166384 RMS     0.000166384
 Search for a local minimum.
 Step number   1 out of a maximum of    2
 All quantities printed in internal units (Hartrees-Bohrs-Radians)
 Second derivative matrix not updated -- analytic derivatives used.
 The second derivative matrix:
                          R1
           R1           0.24679
 ITU=  0
     Eigenvalues ---    0.24679
 Angle between quadratic step and forces=   0.00 degrees.
 Linear search not attempted -- first point.
 Iteration  1 RMS(Cart)=  0.00047673 RMS(Int)=  0.00000000
 Iteration  2 RMS(Cart)=  0.00000000 RMS(Int)=  0.00000000
 ClnCor:  largest displacement from symmetrization is 2.22D-16 for atom     1.
 Variable       Old X    -DE/DX   Delta X   Delta X   Delta X     New X
                                 (Linear)    (Quad)   (Total)
    R1        2.58051  -0.00017   0.00000  -0.00067  -0.00067   2.57983
         Item               Value     Threshold  Converged?
 Maximum Force            0.000166     0.000450     YES
 RMS     Force            0.000166     0.000300     YES
 Maximum Displacement     0.000337     0.001800     YES
 RMS     Displacement     0.000477     0.001200     YES
 Predicted change in Energy=-5.608764D-08
 Optimization completed.
    -- Stationary point found.
                           ----------------------------
                           !   Optimized Parameters   !
                           ! (Angstroms and Degrees)  !
 --------------------------                            --------------------------
 ! Name  Definition              Value          Derivative Info.                !
 --------------------------------------------------------------------------------
 ! R1    R(1,2)                  1.3655         -DE/DX =   -0.0002              !
 --------------------------------------------------------------------------------
 GradGradGradGradGradGradGradGradGradGradGradGradGradGradGradGradGradGrad

 1\1\GINC-ILMFIXE086\Freq\UBLYP\6-31G(d,p)\H1S1(2)\ALLOUCHE\14-Feb-2018
 \0\\#N Geom=AllCheck Guess=TCheck SCRF=Check GenChk UBLYP/6-31G(d,p) F
 req\\Gaussian file generated by cchemi\\0,2\H,0.,0.,-0.2327727027\S,0.
 ,0.,1.1327727027\\Version=EM64L-G09RevD.01\HF=-398.7201758\S2=0.751917
 \S2-1=0.\S2A=0.750001\RMSD=5.162e-10\RMSF=9.606e-05\ZeroPoint=0.005885
 7\Thermal=0.0082462\Dipole=0.,0.,-0.4013822\DipoleDeriv=0.1555042,0.,0
 .,0.,0.1555463,0.,0.,0.,-0.1255464,-0.1555042,0.,0.,0.,-0.1555463,0.,0
 .,0.,0.1255464\Polar=9.4390472,0.,9.0237306,0.,0.,16.8594602\PG=C*V [C
 *(H1S1)]\NImag=0\\0.00031132,0.,0.00026080,0.,0.,0.24678819,-0.0003113
 2,0.,0.,0.00031132,0.,-0.00026080,0.,0.,0.00026080,0.,0.,-0.24678819,0
 .,0.,0.24678819\\0.,0.,-0.00016638,0.,0.,0.00016638\\\@


 WE MIGHT AS WELL ATTEMPT TO INTRODUCE A NEW PLANET 
 INTO THE SOLAR SYSTEM, OR TO ANNIHILATE ONE ALREADYIN EXISTENCE, 
 AS TO CREATE OR DESTROY A PARTICLE OF HYDROGEN.
 ALL THE CHANGES WE CAN PRODUCE CONSIST IN SEPARATING PARTICLES
 THAT ARE IN A STATE OF ... COMBINATION, AND JOINING 
 THOSE THAT WERE PREVIOUSLY AT A DISTANCE.

                                    -- JOHN DALTON, 1810
 Job cpu time:       0 days  0 hours  0 minutes  3.8 seconds.
 File lengths (MBytes):  RWF=      5 Int=      0 D2E=      0 Chk=      1 Scr=      1
 Normal termination of Gaussian 09 at Wed Feb 14 17:10:59 2018.
