<?xml version="1.0"?>
<molpro xmlns="http://www.molpro.net/schema/molpro2006"
  xmlns:xsd="http://www.w3.org/1999/XMLSchema"
  xmlns:cml="http://www.xml-cml.org/schema/cml2/core"
  xmlns:stm="http://www.xml-cml.org/schema/stmml"
  xmlns:xhtml="http://www.w3.org/1999/xhtml">
 <!--

 Primary working directories    : /home/allouche/tmp
 Secondary working directories  : /home/allouche/tmp
 Wavefunction directory         : /home/allouche/wfu/
 Main file repository           : /home/allouche/tmp/
 
 cpu       : Intel(R) Xeon(R) CPU E5-2609 0 @ 2.40GHz 1209.656 MHz
 FC        : /home/andy/intel/fc/10.1.008/bin/ifort
 FCVERSION : 10.1
 BLASLIB   : -L/home/andy/intel/mkl/9.1/lib/32 -lmkl_ia32 -lguide -lpthread -openmp
 id        : lasimuniv

 mxmblk=64; mxmbln=64; ncache=16384; mindgm=10; mindgv=32; mindgc=4; mindgl=1; mindgr=8; noblas=0; nroll=2; minvec=7
 default implementation of scratch files=df  

 --><job>
  <!--
 memory,64,m
 geomtyp=xyz
 geometry={
 nosym,
 3                                                                               ! number of atoms
 GeomXYZ
 H         0.748790   -0.462880    0.000000
 H        -0.748790   -0.462880    0.000000
 O         0.000000    0.115720    0.000000
 }
  
 basis=avtz
  
 explicit,gem_beta=1.4,core_singles=1
 local,domsel=0.98,chgmax=0.4
  
 df-hf,basis=vtz
  
 {df-lmp2-f12,ri_basis=vtz,ansatz=3*A(loc)
 explicit,pairs=strong}
 optg
 {frequencies,symm=c1
 thermo,sym=c1
 print,thermo}

 Variables initialized (599), CPU time= 0.00 sec
 Commands  initialized (355), CPU time= 0.02 sec, 460 directives.
 Default parameters read. Elapsed time= 0.06 sec
 Checking input...
 Passed
1


                                         ***  PROGRAM SYSTEM MOLPRO  ***
                         Copyright, University College Cardiff Consultants Limited, 2004

                                    Version 2008.1 linked 05 Sep 2008 18:06:17


 **********************************************************************************************************************************
 LABEL *                                                                                 
 Linux-3.16.0-4-amd64/ilmfixe086(x86_64) 32 bit version                                  DATE:  25-Jul-16         TIME: 15:40:27  
 **********************************************************************************************************************************

 Patch level:      5
 **********************************************************************************************************************************
  -->
  <!--
 SETTING GEOMTYP        =    XYZ

 Variable memory set to   64000000 words,  buffer space   230000 words
 
 SETTING BASIS          =    AVTZ
  --><jobstep command="DF-HF-SCF" commandset="SCFPRO">
   <!--


 Recomputing integrals since basis changed


 Using spherical harmonics

 Library entry H      S aug-cc-pVTZ          selected for orbital group  1
 Library entry H      P aug-cc-pVTZ          selected for orbital group  1
 Library entry H      D aug-cc-pVTZ          selected for orbital group  1
 Library entry O      S aug-cc-pVTZ          selected for orbital group  2
 Library entry O      P aug-cc-pVTZ          selected for orbital group  2
 Library entry O      D aug-cc-pVTZ          selected for orbital group  2
 Library entry O      F aug-cc-pVTZ          selected for orbital group  2

1PROGRAM * SEWARD (Integral evaluation for generally contracted gaussian basis sets)     Author: Roland Lindh, 1990

 Geometry written to block  1 of record 700


 Point group  C1  


   --><cml:symmetry pointGroup="C1"/><!--
   --><cml:atomArray>
    <cml:atom id="1" elementType="H" x3="0.74879" y3="-0.46288" z3="0.0"/>
    <cml:atom id="2" elementType="H" x3="-0.74879" y3="-0.46288" z3="0.0"/>
    <cml:atom id="3" elementType="O" x3="0.0" y3="0.11572" z3="0.0"/>
   </cml:atomArray><!--

 ATOMIC COORDINATES

 NR  ATOM    CHARGE       X              Y              Z

   1  H       1.00    1.415008030   -0.874716432    0.000000000
   2  H       1.00   -1.415008030   -0.874716432    0.000000000
   3  O       8.00    0.000000000    0.218679108    0.000000000

 Bond lengths in Bohr (Angstrom)

 1-3  1.788228601  2-3  1.788228601
     (0.946289820)     (0.946289820)

 Bond angles

  1-3-2  104.61252083

 NUCLEAR CHARGE:                   10
 NUMBER OF PRIMITIVE AOS:         121
 NUMBER OF SYMMETRY AOS:          108
 NUMBER OF CONTRACTIONS:           92   (  92A   )
 NUMBER OF CORE ORBITALS:           1   (   1A   )
 NUMBER OF VALENCE ORBITALS:        6   (   6A   )


 NUCLEAR REPULSION ENERGY    9.30075679

 EXTRA SYMMETRY OF AOS IN SYMMETRY 1:   1 1 1 1 1 1 2 1 1 2   1 1 2 1 1 2 1 2 1 1   2 1 2 1 1 1 1 1 1 2   1 1 2 1 1 2 1 1 2 1
                                        2 1 1 2 1 2 1 1 1 1   1 1 1 2 1 1 2 1 1 2   1 1 2 1 1 2 1 2 1 1   2 1 2 1 1 2 1 2 1 1
                                        2 1 2 1 2 1 1 2 1 2   1 2

 Eigenvalues of metric

         1 0.377E-03 0.379E-03 0.162E-02 0.183E-02 0.306E-02 0.483E-02 0.534E-02 0.578E-02
 

 OPERATOR DM      FOR CENTER  0  COORDINATES:    0.000000    0.000000    0.000000


 **********************************************************************************************************************************
 DATASETS  * FILE   NREC   LENGTH (MB)   RECORD NAMES
              1      18        1.59       500      610      700      900      950      970     1000      129      960     1100   
                                          VAR    BASINP    GEOM    SYMINP    ZMAT    AOBASIS   BASIS     P2S    ABASIS      S 
                                         1400     1410     1200     1210     1080     1600     1650     1700   
                                           T        V       H0       H01     AOSYM     SMH    MOLCAS    OPER   
 
 PROGRAMS   *        TOTAL       INT
 CPU TIMES  *         0.18      0.04
 REAL TIME  *         0.22 SEC
 DISK USED  *         1.96 MB      
 **********************************************************************************************************************************

1PROGRAM * RHF-SCF (CLOSED SHELL)       Authors: W. Meyer, H.-J. Werner


 NUMBER OF ELECTRONS:       5+    5-
 CONVERGENCE THRESHOLDS:    1.00E-06 (Density)    1.00E-07 (Energy)
 INTEGRAL THRESHOLDS:       1.00E-11 (Initial)    1.00E-11 (Final)
 MAX. NUMBER OF ITERATIONS:       60
 INTERPOLATION TYPE:            DIIS
 INTERPOLATION STEPS:              2 (START)      1 (STEP)
 LEVEL SHIFTS:                  0.00 (CLOSED)  0.00 (OPEN) 



 Orbital guess generated from atomic densities.  Occupancy:    5
 
 Basis set CC-PVTZ-JKFIT generated. Number of basis functions: 139 
 
 Coulomb and exchange fitting
 Thresholds for fitting:       THRAO_COUL= 1.0D-12    THRAO_EXCH= 1.0D-12    THRMO= 1.0D-11    THRPROD= 1.0D-11    THRASM= 1.0D-11
                               THR2HLF=    1.0D-11

 Molecular orbital dump at record        2100.2

 ITERATION   DDIFF            GRAD            ENERGY        2-EL.EN.            DIPOLE MOMENTS         DIIS   CPU(IT)  CPU(TOT)
    1      0.000D+00      0.000D+00       -76.02356716     77.804859   0.000000  -1.117209   0.000000    0      0.1      0.4   diag
    2      0.000D+00      0.658D-02       -76.05036892     74.274135   0.000000  -0.669066   0.000000    1      0.1      0.5   diag
    3      0.112D-01      0.405D-02       -76.06088331     75.811914   0.000000  -0.779648   0.000000    2      0.1      0.6   diag
    4      0.389D-02      0.378D-03       -76.06105904     75.724260   0.000000  -0.776973   0.000000    3      0.1      0.7   diag
    5      0.507D-03      0.993D-04       -76.06107521     75.737340   0.000000  -0.776009   0.000000    4      0.1      0.9   diag
    6      0.147D-03      0.180D-04       -76.06107606     75.736708   0.000000  -0.775950   0.000000    5      0.1      1.0   diag
    7      0.332D-04      0.335D-05       -76.06107610     75.736814   0.000000  -0.775887   0.000000    6      0.1      1.1   diag
    8      0.870D-05      0.662D-06       -76.06107610     75.736778   0.000000  -0.775857   0.000000    5      0.1      1.2   diag
    9      0.155D-05      0.123D-06       -76.06107610     75.736809   0.000000  -0.775855   0.000000    6      0.1      1.3   diag
   10      0.261D-06      0.530D-07       -76.06107610     75.736797   0.000000  -0.775853   0.000000    0      0.1      1.5   orth
 
 Final occupancy:   5
 
 !RHF STATE 1.1 Energy                -76.061076099219
   --><property name="Energy" method="RHF" principal="true" stateSymmetry="1" stateNumber="1"
     value="-76.0610760992186"/><!--
 Nuclear energy                         9.30075679
 One-electron energy                 -123.23023121
 Two-electron energy                   37.86839832
 Virial quotient                       -1.00076394
 !RHF STATE 1.1 Dipole moment           0.00000000    -0.77585339     0.00000000
 Dipole moment /Debye                   0.00000000    -1.97189347     0.00000000
   --><property name="Dipole moment" method="RHF" principal="true" stateSymmetry="1"
     stateNumber="1"
     value="0.346590991835858E-14 -0.7758533930482 0.643280567589764E-15"/><!--

 Orbital energies:

         1.1          2.1          3.1          4.1          5.1          6.1          7.1
    -20.565197    -1.359290    -0.724114    -0.586852    -0.511264     0.029649     0.047737


 **********************************************************************************************************************************
 DATASETS  * FILE   NREC   LENGTH (MB)   RECORD NAMES
              1      19        1.59       500      610      700      900      950      970     1000      129      960     1100   
                                          VAR    BASINP    GEOM    SYMINP    ZMAT    AOBASIS   BASIS     P2S    ABASIS      S 
                                         1400     1410     1200     1210     1080     1600     1650     1700      960(1)
                                           T        V       H0       H01     AOSYM     SMH    MOLCAS    OPER    ABASIS    
 
              2       3        0.41       700     1000     2100   
                                         GEOM     BASIS     RHF  
 
 PROGRAMS   *        TOTAL        HF       INT
 CPU TIMES  *         1.64      1.46      0.04
 REAL TIME  *         1.92 SEC
 DISK USED  *         3.74 MB      
 **********************************************************************************************************************************
   -->
   <time start="15:40:27" end="15:40:29" cpu="1.64" system="********************"
     real="********************"/>
   <storage units="megabyte" memory="513.84" sf="0.0" df="3.74" eaf="0.0"/>
  </jobstep><!--
  --><jobstep command="DF-LMP2-F12" commandset="CCSD">
   <!--


 Input parameters for LOCAL:

 LOCAL  =   -1.000000
 DOMSEL =    0.980000
 CHGMAX =    0.400000

1PROGRAM * MP2 (Closed-shell)     Authors: C. Hampel, H.-J. Werner, 1991, M. Deegan, P.J. Knowles, 1992,  U. Schumann, 2001

                              Local implementation by C. Hampel and H.-J. Werner, 1996
                                    M. Schuetz, G. Hetzer, and H.-J. Werner, 1999

                        Local MP2-F12 implementation by H.-J. Werner and F. R. Manby, 2006

                           Density fitting integral evaluation by F. R. Manby, 2003,2007

 
 Basis set AUG-CC-PVTZ-MP2F generated. Number of basis functions: 198 

 Convergence thresholds:  THRVAR = 1.00D-12  THRDEN = 1.00D-08

 Number of core orbitals:           1 (   1 )
 Number of closed-shell orbitals:   4 (   4 )
 Number of external orbitals:      87 (  87 )
 
 Molecular orbitals read from record     2100.2  Type=RHF/CANONICAL (state 1.1)

 Local correlation treatment
 ===========================

 LOCAL=4  IBASO=0  NONORM=2  IDLCOR=2  KEEPCORE=1  SKIPD=3  LOCSNG=0  LOCMUL=0  CANBLK=0  SHELLPERM=F

 Thresholds:

 THRLOC= 1.00D-06 (Smallest allowed eigenvalue in domain redundancy check)
 THRGAP= 1.00D-06 (Minimum eigenvalue gap in domain redundancy check)
 THRLOCT=1.00D-06 (Smallest allowed eigenvalue in domain redundancy check of triples)
 THRGAPT=1.00D-06 (Minimum eigenvalue gap in domain redundancy check of triples)
 THRORB= 1.00D-06 (Norm of projected orbitals)
 THRMP2= 1.00D-08 (Neglect of small Fock matrix elements)

 Orbital domain selection criteria:

 CHGFRAC=  0.980   CHGMIN=   0.010   CHGMINH=  0.030   CHGMAX=  0.400   CHGMIN_PAIRS=  0.200    MERGEDOM=0   CANBLK=0

 Weak and distant pair selection criteria:

 RCLOSE= 1.000   RWEAK= 3.000   RDIST= 8.000   RVDIST=15.000   KEEPCLS=0   MP4CLS=0

 Pipek-Mezey localisation finished (npass=  7  nrot=     33  Thresh=  0.10D-08  CPU=   0.00 sec)

 Ordering localized MOs according to charge centroids

 Generating projected atomic orbitals
 
 Deleting projected core orbital   47.1 (O 1s)    Norm=  0.14D-02

 Ranking of atoms according to Loewdin charges

 Orbital domains

   Orb.   Atom     Charge      Crit.
   2.1    3 O       1.27       0.000
          2 H       0.52       1.000
   3.1    3 O       1.57       1.000
   4.1    3 O       1.35       1.000
   5.1    3 O       1.27       0.000
          1 H       0.52       1.000

 Number of strong pairs:          10

 Average pair domain sizes:       64    (strong pairs:  64, close pairs:   0, weak pairs:   0, distant pairs:   0)
 Number of redundant orbitals:    14

 Largest S-eigenvalue of redundant functions:  0.2522D-15   Pair:   8  Symmetry: 1
 Smallest S-eigenvalue of domains              0.2816D-04   Pair:   4  Symmetry: 1

 United MP2 domains:   min:   92  max:   92  average:   92

 CPU-time for pair domains:             0.02 SEC

 Number of orbital pairs:                        10
 Number of operators K(kl):                      10
 Number of operators J(kl):                      10

 icfit_3ext= 0  icfit_4ext= 0
 locfit_ccsd=0  locfit_2ext=0  locfit_3ext=0  locfit_4ext=0  locfit=0

 Number of correlated orbitals:                  4
 Number of strong pair functions:               10
 Total number of pair functions:                10
 Number of singly external local CSFs:         230
 Number of doubly external local CSFs:       36616 (all pairs)     36616 (strong pairs)         0 (weak pairs)
 Total number of local CSFs:                 36847 (all pairs)     36847 (strong pairs)

 Length of J-op  integral file:               0.16 MB
 Length of K-op  integral file:               1.15 MB

 Using Ansatz LMP2-F12/2*A(loc)

 Geminal basis:    OPTFULL  GEM_TYPE=SLATER  BETA=1.4  NGEM=6
 Geminal optimization for beta= 1.4000
 Weight function: m=0, omega= 1.8329

 Augmented Hessian optimization of geminal fit. Trust ratio= 0.40000
 Convergence reached after   2 iterations.
 Final gradient= 9.16335D-17, Step= 5.97727D-07,  Delta= 1.11158D-09
 
 Alpha:                 0.32335     1.22090     4.06503    13.28654    49.65231   274.64957
 Coeff:                 0.21345     0.30057     0.20316     0.12774     0.08045     0.05014
 
 
 AO-basis ORBITAL          loaded. Number of functions:      92
 RI-basis CC-PVTZ-JKFIT    loaded. Number of functions:     139
 DF-basis AUG-CC-PVTZ-MP2F loaded. Number of functions:     198

 Strong pairs explicitly correlated. Number of r12-pairs:    10

 Using full AO-domains
 Using full RI-domains
 

 Dscreen=F  Lscreen=0  Locfit=0  Invert=0  Robust=F  Use_VRT=T  UsePAO=T  Use_AO=F  FULLAO=0

 Screening thresholds:   THRAO=  0.10D-09  THRMO=  0.10D-09  THRPROD=  0.10D-09 THRSW=  0.10D-06  THROV=  0.10D-11
 
 CPU time for 3-index integrals J                 0.08 sec
 CPU time for 3-index integrals F                 0.26 sec
 CPU time for 3-index integrals FX                1.66 sec
 CPU time for 3-index integrals Y                 0.46 sec
 CPU time for 3-index integrals FJ                0.42 sec
 CPU time for 3-index integrals FT                3.28 sec
 
 Disk space for H1-integrals:                     3.54 MB  (    12 records,   2 batches)
 CPU time for 3-index integral evaluation         6.16 sec
 CPU time for first half transformation           0.02 sec (4022.1 MFLOP/sec,  Sparsity used:   0.0%)
 CPU time for second half transformation          0.00 sec (5800.0 MFLOP/sec)
 CPU time for sorting                             0.00 sec
 CPU time for fitting                             0.04 sec (2618.8 MFLOP/sec)
 CPU time for assembly                            0.00 sec (****** MFLOP/sec)

 Projecting pair domains only
 CPU time for transformation (AO)                 0.02 sec
 
 CPU time for 3-index integrals J                 0.12 sec
 CPU time for 3-index integrals F                 0.36 sec
 CPU time for 3-index integrals FX                2.12 sec
 CPU time for 3-index integrals Y                 0.68 sec
 
 Disk space for H1-integrals:                     3.62 MB  (     8 records,   2 batches)
 CPU time for 3-index integral evaluation         3.28 sec
 CPU time for first half transformation           0.02 sec (4051.2 MFLOP/sec,  Sparsity used:   0.0%)
 CPU time for sorting                             0.00 sec
 CPU time for fitting                             0.02 sec (6798.0 MFLOP/sec)
 CPU time for assembly                            0.00 sec (3082.5 MFLOP/sec)
 CPU time for transformation (RI)                 0.02 sec

 LMP2-F12/2*A(loc)/3*A energy corrections:

 Singlet:    -0.0293392361
 Triplet:    -0.0046674902
 Total:      -0.0340067262

 Total time for F12/2*A correction                9.72 sec

 Minimum memory for LMP2:      0.20 MW, used:      0.26 MW

 Threshold for neglect of couplings:    0.10D-07     LMP2ALGO= 3   DYNAMIC=0  LIIS=1

 ITER.      SQ.NORM    CORR.ENERGY   TOTAL ENERGY   ENERGY CHANGE      VAR         THR       CPU     DIIS
   1      1.05833807    -0.26039639   -76.32147249    -0.26039639    0.58D-01    0.10D-04     0.00    0  0
   2      1.05785655    -0.26364795   -76.32472404    -0.00325155    0.77D-03    0.10D-07     0.02    1  1
   3      1.06185975    -0.26605299   -76.32712909    -0.00240505    0.22D-04    0.10D-07     0.04    2  2
   4      1.06242438    -0.26611981   -76.32719591    -0.00006682    0.73D-06    0.10D-07     0.06    3  3
   5      1.06245882    -0.26612191   -76.32719801    -0.00000210    0.28D-07    0.10D-07     0.06    4  4
   6      1.06245043    -0.26612199   -76.32719809    -0.00000008    0.12D-08    0.10D-07     0.08    5  5
   7      1.06244900    -0.26612199   -76.32719809     0.00000000    0.46D-10    0.10D-07     0.10    6  6
   8      1.06244896    -0.26612199   -76.32719809     0.00000000    0.18D-11    0.10D-07     0.12    6  1
   9      1.06244898    -0.26612199   -76.32719809     0.00000000    0.78D-13    0.10D-07     0.14    6  2

 CPU TIME FOR ITERATIVE MP2:    0.14 SEC

 

 LMP2 correlation energy:              -0.266121991803    F12/3*A(LOC) correction:  -0.0340067262   Total:  -0.3001287180
 LMP2 singlet pair energy              -0.168890786857    F12/3*A(LOC) correction:  -0.0293392361   Total:  -0.1982300229
 LMP2 triplet pair energy              -0.097231204946    F12/3*A(LOC) correction:  -0.0046674902   Total:  -0.1018986951

 Reference energy                     -76.061076099219
 Correlation energy                    -0.300128718043

 !LMP2-F12/3*A(LOC) Energy            -76.361204817261
   --><property name="Energy" method="LMP2-F12/3*A(LOC)" principal="true" stateSymmetry="1"
     stateNumber="1" value="-76.3612048172612"/><!--
 NBatch in kexthalf=  1
 CPU time for read in KEH :                       0.00 sec, Elapsed time=      0.00 sec
 CPU time for tran in KEH :                       0.00 sec, Elapsed time=      0.00 sec
 CPU time for mxma in KEH :                       0.00 sec, Elapsed time=      0.00 sec
 CPU time for accu in KEH :                       0.00 sec, Elapsed time=      0.00 sec
 CPU time for max and write in KEH :              0.00 sec, Elapsed time=      0.00 sec
 CPU time for sort in KEH :                       0.00 sec, Elapsed time=      0.00 sec
 Time for making Fock matrix (overall):      0.30 sec

 Solving coupled perturbed localization equations

 Number of orbital parameters:                  6
 Norm of right-hand side:                  0.3884D-02
 Gradient of localization functional:      0.3954D-10

 Solving CPL equations. Requested accuracy=  0.10D-05

 ITER      GRAD        VAR
   1    0.55D-02    0.33D-02
   2    0.70D-04    0.42D-04
   3    0.89D-06    0.54D-06
 
 Time for CPL C-matrix:                      0.00 sec
 Time for CPL solve:                         0.00 sec
 Time for CPL (total):                       0.00 sec

 Thresholds used in cphf: THRAO= 1.0D-10, THRMO= 1.0D-10, THROV= 1.0D-12, THRSW= 1.0D-10, THRPROD= 1.0D-10

 Starting Coupled-perturbed Hartree-Fock, convergence threshold= 1.0D-06, integral threshold= 1.0D-11

 ITER   MIC  DIIS      VAR         VARC       CPU
   1     0     1    0.13D+00    0.26D-02     0.28
   2     0     2    0.31D-01    0.26D-03     0.38
   3     0     3    0.75D-02    0.15D-03     0.50
   4     0     4    0.16D-02    0.36D-04     0.60
   5     0     5    0.27D-03    0.46D-05     0.70
   6     0     6    0.52D-04    0.64D-06     0.80
   7     0     6    0.95D-05    0.14D-06     0.92
   8     0     6    0.19D-05    0.41D-07     1.02
   9     0     6    0.34D-06    0.69D-08     1.14

 CPHF convergence reached in  9 macroiterations and    0 microiterations.   Accuracy: 3.3712D-07

 CPHF solution written to record  4101.2

 Dipole moments (unrelaxed):            0.00000000    -0.76072429     0.00000000
 Orbital relaxation contribution:       0.00000000     0.04615302     0.00000000
 !LMP2 dipole moments:                  0.00000000    -0.71457127     0.00000000
 
 CPU-time for density and lagrangian:                  0.34 sec
 CPU-time for coupled-perturbed hartree-fock:          1.16 sec

 LMP2 Gradient info saved on record         5200.1


 **********************************************************************************************************************************
 DATASETS  * FILE   NREC   LENGTH (MB)   RECORD NAMES
              1      23        2.98       500      610      700      900      950      970     1000      129      960     1100   
                                          VAR    BASINP    GEOM    SYMINP    ZMAT    AOBASIS   BASIS     P2S    ABASIS      S 
                                         1400     1410     1200     1210     1080     1600     1650     1700      960(1)  2541   
                                           T        V       H0       H01     AOSYM     SMH    MOLCAS    OPER    ABASIS   FC_mu_i    
                                         2542     2547     5200   
                                        FC_j_i    grad     LMP2   
 
              2       5        0.69       700     1000     2100     4100     4101   
                                         GEOM     BASIS     RHF     CPHF     CPHF   
 
 PROGRAMS   *        TOTAL  LMP2-F12        HF       INT
 CPU TIMES  *        14.68     13.00      1.46      0.04
 REAL TIME  *        15.03 SEC
 DISK USED  *        17.72 MB      
 **********************************************************************************************************************************
   -->
   <time start="15:40:29" end="15:40:42" cpu="13.04" system="0.08" real="13.11"/>
   <storage units="megabyte" memory="513.84" sf="0.0" df="17.72" eaf="0.0"/>
  </jobstep><!--
  --><jobstep command="OPTG" commandset="OPT">
   <!--


 PROGRAM * OPT (Geometry optimization)     Authors: F. Eckert and H.-J. Werner


 *** Long output written to logfile /home/allouche/tmp/QFFMolproDFLMP2F12/h2o.log ***


 Geometry optimization using default procedure for command DF-LMP2-F12

 Geometry written to block  1 of record 700
   --><gradient name="LMP2 GRADIENT" stateSymmetry="1" stateNumber="1">
      0.040842591498  -0.036392811153   0.000000000000
     -0.040842591500  -0.036392811153   0.000000000000
      0.000000000001   0.072785622307   0.000000000000
   </gradient><!--

 Making model hessian for cartesian coordinates

 Quadratic Steepest Descent - Minimum Search

 Optimization point  1

 Variable                      Last           Current        Next           Gradient       Hessian
 E(DF-LMP2-F12) / Hartre     0.00000000   -76.36120482     0.00000000
 GX1 / ANGSTROM              0.00000000     0.74879000     0.72505748     0.07718131     0.00000000
 GY1 / ANGSTROM              0.00000000    -0.46288000    -0.45146841    -0.06877245     0.00000000
 GZ1 / ANGSTROM              0.00000000     0.00000000     0.00000000     0.00000000     0.00000000
 GX2 / ANGSTROM              0.00000000    -0.74879000    -0.72505748    -0.07718131     0.00000000
 GY2 / ANGSTROM              0.00000000    -0.46288000    -0.45146841    -0.06877245     0.00000000
 GZ2 / ANGSTROM              0.00000000     0.00000000     0.00000000     0.00000000     0.00000000
 GX3 / ANGSTROM              0.00000000     0.00000000     0.00000000     0.00000000     0.92501034
 GY3 / ANGSTROM              0.00000000     0.11572000     0.09289681     0.13754489     4.92583661
 GZ3 / ANGSTROM              0.00000000     0.00000000     0.00000000     0.00000000     5.84214402
 Convergence:                0.00000000  (line search)     0.08254041     0.10622078  (total)
   --><jobstep command="DF-HF-SCF" commandset="SCFPRO">
    <!--
    --><cml:symmetry pointGroup="C1"/><!--
    --><cml:atomArray>
     <cml:atom id="1" elementType="H" x3="0.725057479211704" y3="-0.451468407097152" z3="0.0"/>
     <cml:atom id="2" elementType="H" x3="-0.725057479211369" y3="-0.451468407096894" z3="0.0"/>
     <cml:atom id="3" elementType="O" x3="-0.334416894991402E-12" y3="0.928968141940457E-01"
       z3="0.0"/>
    </cml:atomArray><!--
    --><property name="Energy" method="RHF" principal="true" stateSymmetry="1" stateNumber="1"
      value="-76.0583518651117"/><!--
    --><property name="Dipole moment" method="RHF" principal="true" stateSymmetry="1"
      stateNumber="1"
      value="0.23447410935612E-11 -0.752473848580067 0.196475115893366E-14"/><!--
    -->
    <time start="15:40:43" end="15:40:45" cpu="2.46" system="0.02" real="2.46"/>
    <storage units="megabyte" memory="513.84" sf="0.0" df="17.72" eaf="0.0"/>
   </jobstep><!--
   --><jobstep command="DF-LMP2-F12" commandset="CCSD">
    <!--
    --><property name="Energy" method="LMP2-F12/3*A(LOC)" principal="true" stateSymmetry="1"
      stateNumber="1" value="-76.3555923381371"/><!--
    -->
    <time start="15:40:45" end="15:40:58" cpu="13.22" system="0.08" real="13.35"/>
    <storage units="megabyte" memory="513.84" sf="0.0" df="18.01" eaf="0.0"/>
   </jobstep><!--
   --><gradient name="LMP2 GRADIENT" stateSymmetry="1" stateNumber="1">
      0.002921840876  -0.006911001721   0.000000000000
     -0.002921840901  -0.006911001733   0.000000000001
      0.000000000025   0.013822003454   0.000000000000
   </gradient><!--

 Optimization point  2

 Variable                      Last           Current        Next           Gradient       Hessian
 E(DF-LMP2-F12) / Hartre   -76.36120482   -76.35559234     0.00000000
 GX1 / ANGSTROM              0.74879000     0.72505748     0.72676718     0.00552148     0.00000000
 GY1 / ANGSTROM             -0.46288000    -0.45146841    -0.44727630    -0.01305990     0.00000000
 GZ1 / ANGSTROM              0.00000000     0.00000000     0.00000000     0.00000000     0.00000000
 GX2 / ANGSTROM             -0.74879000    -0.72505748    -0.72676718    -0.00552148     0.00000000
 GY2 / ANGSTROM             -0.46288000    -0.45146841    -0.44727630    -0.01305990     0.00000000
 GZ2 / ANGSTROM              0.00000000     0.00000000     0.00000000     0.00000000     0.00000000
 GX3 / ANGSTROM              0.00000000     0.00000000     0.00000000     0.00000000     1.23170613
 GY3 / ANGSTROM              0.11572000     0.09289681     0.08451261     0.02611980     5.50816969
 GZ3 / ANGSTROM              0.00000000     0.00000000     0.00000000     0.00000000     6.55681827
 Convergence:                0.00000000  (line search)     0.01993537     0.01742544  (total)
   --><jobstep command="DF-HF-SCF" commandset="SCFPRO">
    <!--
    --><cml:symmetry pointGroup="C1"/><!--
    --><cml:atomArray>
     <cml:atom id="1" elementType="H" x3="0.72676718190868" y3="-0.447276302645972" z3="0.0"/>
     <cml:atom id="2" elementType="H" x3="-0.726767181900351" y3="-0.447276302639705" z3="0.0"/>
     <cml:atom id="3" elementType="O" x3="-0.832853041542839E-11" y3="0.845126052856773E-01"
       z3="0.0"/>
    </cml:atomArray><!--
    --><property name="Energy" method="RHF" principal="true" stateSymmetry="1" stateNumber="1"
      value="-76.0572646050899"/><!--
    --><property name="Dipole moment" method="RHF" principal="true" stateSymmetry="1"
      stateNumber="1"
      value="0.402474491084918E-10 -0.741401375885782 -0.163804694473377E-14"/><!--
    -->
    <time start="15:40:59" end="15:41:00" cpu="2.36" system="0.02" real="2.36"/>
    <storage units="megabyte" memory="513.84" sf="0.0" df="18.01" eaf="0.0"/>
   </jobstep><!--
   --><jobstep command="DF-LMP2-F12" commandset="CCSD">
    <!--
    --><property name="Energy" method="LMP2-F12/3*A(LOC)" principal="true" stateSymmetry="1"
      stateNumber="1" value="-76.354024111402"/><!--
    -->
    <time start="15:41:00" end="15:41:13" cpu="12.92" system="0.06" real="12.98"/>
    <storage units="megabyte" memory="513.84" sf="0.0" df="18.01" eaf="0.0"/>
   </jobstep><!--
   --><gradient name="LMP2 GRADIENT" stateSymmetry="1" stateNumber="1">
     -0.002326243756  -0.000423625107   0.000000000000
      0.002326243769  -0.000423624915   0.000000000000
     -0.000000000014   0.000847250023   0.000000000001
   </gradient><!--

 Optimization point  3

 Variable                      Last           Current        Next           Gradient       Hessian
 E(DF-LMP2-F12) / Hartre   -76.35559234   -76.35402411     0.00000000
 GX1 / ANGSTROM              0.72505748     0.72676718     0.73042593    -0.00439596     0.00000000
 GY1 / ANGSTROM             -0.45146841    -0.44727630    -0.44581160    -0.00080054     0.00000000
 GZ1 / ANGSTROM              0.00000000     0.00000000     0.00000000     0.00000000     0.00000000
 GX2 / ANGSTROM             -0.72505748    -0.72676718    -0.73042593     0.00439596     0.00000000
 GY2 / ANGSTROM             -0.45146841    -0.44727630    -0.44581160    -0.00080054     0.00000000
 GZ2 / ANGSTROM              0.00000000     0.00000000     0.00000000     0.00000000     0.00000000
 GX3 / ANGSTROM              0.00000000     0.00000000     0.00000000     0.00000000     1.29712339
 GY3 / ANGSTROM              0.09289681     0.08451261     0.08158320     0.00160107     5.55176313
 GZ3 / ANGSTROM              0.00000000     0.00000000     0.00000000     0.00000000     6.72856365
 Convergence:                0.00000000  (line search)     0.01189853     0.00344958  (total)
   --><jobstep command="DF-HF-SCF" commandset="SCFPRO">
    <!--
    --><cml:symmetry pointGroup="C1"/><!--
    --><cml:atomArray>
     <cml:atom id="1" elementType="H" x3="0.730425932799153" y3="-0.445811598605847" z3="0.0"/>
     <cml:atom id="2" elementType="H" x3="-0.730425932806245" y3="-0.445811598610782" z3="0.0"/>
     <cml:atom id="3" elementType="O" x3="0.709188802065152E-11" y3="0.815831972166291E-01"
       z3="0.0"/>
    </cml:atomArray><!--
    --><property name="Energy" method="RHF" principal="true" stateSymmetry="1" stateNumber="1"
      value="-76.0573352461194"/><!--
    --><property name="Dipole moment" method="RHF" principal="true" stateSymmetry="1"
      stateNumber="1"
      value="-0.337748106696393E-10 -0.73683568123848 0.157996006375254E-14"/><!--
    -->
    <time start="15:41:15" end="15:41:15" cpu="2.18" system="0.02" real="2.21"/>
    <storage units="megabyte" memory="513.84" sf="0.0" df="18.01" eaf="0.0"/>
   </jobstep><!--
   --><jobstep command="DF-LMP2-F12" commandset="CCSD">
    <!--
    --><property name="Energy" method="LMP2-F12/3*A(LOC)" principal="true" stateSymmetry="1"
      stateNumber="1" value="-76.3540921507726"/><!--
    -->
    <time start="15:41:15" end="15:41:28" cpu="12.9" system="0.08" real="12.97"/>
    <storage units="megabyte" memory="513.84" sf="0.0" df="18.01" eaf="0.0"/>
   </jobstep><!--
   --><gradient name="LMP2 GRADIENT" stateSymmetry="1" stateNumber="1">
     -0.000818621444   0.000063846239   0.000000000000
      0.000818621404   0.000063846079   0.000000000000
      0.000000000040  -0.000127692318   0.000000000000
   </gradient><!--

 Optimization point  4

 Variable                      Last           Current        Next           Gradient       Hessian
 E(DF-LMP2-F12) / Hartre   -76.35402411   -76.35409215     0.00000000
 GX1 / ANGSTROM              0.72676718     0.73042593     0.73181783    -0.00154697     0.00000000
 GY1 / ANGSTROM             -0.44727630    -0.44581160    -0.44539029     0.00012065     0.00000000
 GZ1 / ANGSTROM              0.00000000     0.00000000     0.00000000     0.00000000     0.00000000
 GX2 / ANGSTROM             -0.72676718    -0.73042593    -0.73181783     0.00154697     0.00000000
 GY2 / ANGSTROM             -0.44727630    -0.44581160    -0.44539029     0.00012065     0.00000000
 GZ2 / ANGSTROM              0.00000000     0.00000000     0.00000000     0.00000000     0.00000000
 GX3 / ANGSTROM              0.00000000     0.00000000     0.00000000     0.00000000     1.30091424
 GY3 / ANGSTROM              0.08451261     0.08158320     0.08074059    -0.00024130     5.51182398
 GZ3 / ANGSTROM              0.00000000     0.00000000     0.00000000     0.00000000     6.75722945
 Convergence:                0.00000000  (line search)     0.00420003     0.00116822  (total)
   --><jobstep command="DF-HF-SCF" commandset="SCFPRO">
    <!--
    --><cml:symmetry pointGroup="C1"/><!--
    --><cml:atomArray>
     <cml:atom id="1" elementType="H" x3="0.731817834344632" y3="-0.445390293121063" z3="0.0"/>
     <cml:atom id="2" elementType="H" x3="-0.731817834326318" y3="-0.445390293107675" z3="0.0"/>
     <cml:atom id="3" elementType="O" x3="-0.183135181745512E-10" y3="0.807405862287377E-01"
       z3="0.0"/>
    </cml:atomArray><!--
    --><property name="Energy" method="RHF" principal="true" stateSymmetry="1" stateNumber="1"
      value="-76.0574051172371"/><!--
    --><property name="Dipole moment" method="RHF" principal="true" stateSymmetry="1"
      stateNumber="1"
      value="0.708923221838095E-10 -0.735445811906258 -0.370060351657113E-14"/><!--
    -->
    <time start="15:41:30" end="15:41:31" cpu="2.18" system="0.02" real="2.21"/>
    <storage units="megabyte" memory="513.84" sf="0.0" df="18.01" eaf="0.0"/>
   </jobstep><!--
   --><jobstep command="DF-LMP2-F12" commandset="CCSD">
    <!--
    --><property name="Energy" method="LMP2-F12/3*A(LOC)" principal="true" stateSymmetry="1"
      stateNumber="1" value="-76.3541800478631"/><!--
    -->
    <time start="15:41:31" end="15:41:44" cpu="12.84" system="0.1" real="12.92"/>
    <storage units="megabyte" memory="513.84" sf="0.0" df="18.01" eaf="0.0"/>
   </jobstep><!--

 Freezing domains
   --><gradient name="LMP2 GRADIENT" stateSymmetry="1" stateNumber="1">
     -0.000005824766   0.000006506503   0.000000000000
      0.000005824692   0.000006506877   0.000000000000
      0.000000000074  -0.000013013380   0.000000000000
   </gradient><!--

 Optimization point  5

 Variable                      Last           Current        Next           Gradient       Hessian
 E(DF-LMP2-F12) / Hartre   -76.35409215   -76.35418005     0.00000000
 GX1 / ANGSTROM              0.73042593     0.73181783     0.73181687    -0.00001101     0.00000000
 GY1 / ANGSTROM             -0.44581160    -0.44539029    -0.44539416     0.00001230     0.00000000
 GZ1 / ANGSTROM              0.00000000     0.00000000     0.00000000     0.00000000     0.00000000
 GX2 / ANGSTROM             -0.73042593    -0.73181783    -0.73181687     0.00001101     0.00000000
 GY2 / ANGSTROM             -0.44581160    -0.44539029    -0.44539416     0.00001230     0.00000000
 GZ2 / ANGSTROM              0.00000000     0.00000000     0.00000000     0.00000000     0.00000000
 GX3 / ANGSTROM              0.00000000     0.00000000     0.00000000     0.00000000     1.29981050
 GY3 / ANGSTROM              0.08158320     0.08074059     0.08074832    -0.00002459     5.49421302
 GZ3 / ANGSTROM              0.00000000     0.00000000     0.00000000     0.00000000     6.76178819
 Convergence:                0.00000000  (line search)     0.00001807     0.00001794  (total)
   --><jobstep command="DF-HF-SCF" commandset="SCFPRO">
    <!--
    --><cml:symmetry pointGroup="C1"/><!--
    --><cml:atomArray>
     <cml:atom id="1" elementType="H" x3="0.731816873142631" y3="-0.445394157804397" z3="0.0"/>
     <cml:atom id="2" elementType="H" x3="-0.731816873127892" y3="-0.44539415779358" z3="0.0"/>
     <cml:atom id="3" elementType="O" x3="-0.147389077230622E-10" y3="0.807483155979761E-01"
       z3="0.0"/>
    </cml:atomArray><!--
    --><property name="Energy" method="RHF" principal="true" stateSymmetry="1" stateNumber="1"
      value="-76.0574063501229"/><!--
    --><property name="Dipole moment" method="RHF" principal="true" stateSymmetry="1"
      stateNumber="1"
      value="0.719616213253101E-10 -0.735456271292473 -0.836327080945004E-14"/><!--
    -->
    <time start="15:41:45" end="15:41:45" cpu="1.94" system="0.02" real="1.97"/>
    <storage units="megabyte" memory="513.84" sf="0.0" df="18.01" eaf="0.0"/>
   </jobstep><!--
   --><jobstep command="DF-LMP2-F12" commandset="CCSD">
    <!--
    --><property name="Energy" method="LMP2-F12/3*A(LOC)" principal="true" stateSymmetry="1"
      stateNumber="1" value="-76.3541817407915"/><!--
    -->
    <time start="15:41:45" end="15:41:58" cpu="12.5" system="0.04" real="12.55"/>
    <storage units="megabyte" memory="513.84" sf="0.0" df="18.01" eaf="0.0"/>
   </jobstep><!--

 END OF GEOMETRY OPTIMIZATION.    TOTAL CPU:        75.5 SEC

 ITER.   ENERGY(OLD)    ENERGY(NEW)      DE          GRADMAX     GRADNORM    GRADRMS     STEPMAX     STEPLEN     STEPRMS
   1   -76.36120482   -76.35559234     0.00561248  0.10593134  0.10622078  0.03540693  0.07679664  0.08254041  0.04765473
   2   -76.35559234   -76.35402411     0.00156823  0.01693746  0.01742544  0.00580848  0.01514573  0.01993537  0.01150969
   3   -76.35402411   -76.35409215    -0.00006804  0.00339831  0.00344958  0.00114986  0.01180102  0.01189853  0.00686962
   4   -76.35409215   -76.35418005    -0.00008790  0.00095301  0.00116822  0.00038941  0.00420003  0.00420003  0.00242489
   5   -76.35418005   -76.35418174    -0.00000169  0.00001794  0.00001794  0.00000598  0.00001464  0.00001807  0.00001043

 Geometry written to block  1 of record 700


 **********************************************************************************************************************************
 DATASETS  * FILE   NREC   LENGTH (MB)   RECORD NAMES
              1      23        2.98       500      610      700      900      950      970     1000      129      960     1100   
                                          VAR    BASINP    GEOM    SYMINP    ZMAT    AOBASIS   BASIS     P2S    ABASIS      S 
                                         1400     1410     1200     1210     1080     1600     1650     1700      960(1)  2541   
                                           T        V       H0       H01     AOSYM     SMH    MOLCAS    OPER    ABASIS   FC_mu_i    
                                         2542     2547     5200   
                                        FC_j_i    grad     LMP2   
 
              2       6        0.69       700     1000     2100     4100     4101     6300   
                                         GEOM     BASIS     RHF     CPHF     CPHF    DOMAINS    
 
 PROGRAMS   *        TOTAL      OPTG  LMP2-F12        HF       INT
 CPU TIMES  *        90.18     75.50     13.00      1.46      0.04
 REAL TIME  *        91.01 SEC
 DISK USED  *        18.01 MB      
 **********************************************************************************************************************************
   --><time start="15:40:42" end="15:41:58" cpu="75.5" system="0.46" real="75.98"/><!--
   --><storage units="megabyte" memory="513.84" sf="0.0" df="18.01" eaf="0.0"/><!--
  --></jobstep><!--
  --><jobstep command="FREQ" commandset="FREQ">
   <!--


 PROGRAM * HESSIAN

 Computing numerical hessian using default procedure for command DF-LMP2-F12

 Symmetry elements for unique displacements: Z  

 Using no symmetry in wavefunction calculations

 Running default procedure: DF-HF-SCF000  DF-LMP2-F12
 

 Numerically approximating hessian using central gradient differences

 Task list generated. Total number of displacements:     15

   --><jobstep command="DF-HF-SCF" commandset="SCFPRO">
    <!--
    --><cml:symmetry pointGroup="C1"/><!--
    --><cml:atomArray>
     <cml:atom id="1" elementType="H" x3="0.737108645232631" y3="-0.445394157804397" z3="0.0"/>
     <cml:atom id="2" elementType="H" x3="-0.731816873127892" y3="-0.44539415779358" z3="0.0"/>
     <cml:atom id="3" elementType="O" x3="-0.147389077230622E-10" y3="0.807483155979761E-01"
       z3="0.0"/>
    </cml:atomArray><!--
    --><property name="Energy" method="RHF" principal="true" stateSymmetry="1" stateNumber="1"
      value="-76.0577947875817"/><!--
    --><property name="Dipole moment" method="RHF" principal="true" stateSymmetry="1"
      stateNumber="1"
      value="0.300158755835351E-02 -0.734882896816186 -0.232652535413588E-14"/><!--
    -->
    <time start="15:41:58" end="15:41:59" cpu="1.12" system="0.02" real="1.12"/>
    <storage units="megabyte" memory="513.84" sf="0.0" df="18.01" eaf="0.0"/>
   </jobstep><!--
   --><jobstep command="DF-LMP2-F12" commandset="CCSD">
    <!--
    --><property name="Energy" method="LMP2-F12/3*A(LOC)" principal="true" stateSymmetry="1"
      stateNumber="1" value="-76.3547094092084"/><!--
    -->
    <time start="15:41:59" end="15:42:12" cpu="12.94" system="0.06" real="13.0"/>
    <storage units="megabyte" memory="513.84" sf="0.0" df="18.38" eaf="0.0"/>
   </jobstep><!--
   --><gradient name="LMP2 GRADIENT" stateSymmetry="1" stateNumber="1">
      0.005363438088  -0.003227285921   0.000000000000
     -0.000384080068   0.000283916534   0.000000000000
     -0.004979358019   0.002943369387   0.000000000000
   </gradient><!--
   --><jobstep command="DF-HF-SCF" commandset="SCFPRO">
    <!--
    --><cml:symmetry pointGroup="C1"/><!--
    --><cml:atomArray>
     <cml:atom id="1" elementType="H" x3="0.726525101052631" y3="-0.445394157804397" z3="0.0"/>
     <cml:atom id="2" elementType="H" x3="-0.731816873127892" y3="-0.44539415779358" z3="0.0"/>
     <cml:atom id="3" elementType="O" x3="-0.147389077230622E-10" y3="0.807483155979761E-01"
       z3="0.0"/>
    </cml:atomArray><!--
    --><property name="Energy" method="RHF" principal="true" stateSymmetry="1" stateNumber="1"
      value="-76.0569615071631"/><!--
    --><property name="Dipole moment" method="RHF" principal="true" stateSymmetry="1"
      stateNumber="1"
      value="-0.29965897671386E-02 -0.736029093707791 -0.286471009235107E-14"/><!--
    -->
    <time start="15:42:14" end="15:42:15" cpu="2.46" system="0.02" real="2.5"/>
    <storage units="megabyte" memory="513.84" sf="0.0" df="18.38" eaf="0.0"/>
   </jobstep><!--
   --><jobstep command="DF-LMP2-F12" commandset="CCSD">
    <!--
    --><property name="Energy" method="LMP2-F12/3*A(LOC)" principal="true" stateSymmetry="1"
      stateNumber="1" value="-76.3535986132989"/><!--
    -->
    <time start="15:42:15" end="15:42:28" cpu="12.92" system="0.08" real="12.99"/>
    <storage units="megabyte" memory="513.84" sf="0.0" df="18.38" eaf="0.0"/>
   </jobstep><!--
   --><gradient name="LMP2 GRADIENT" stateSymmetry="1" stateNumber="1">
     -0.005489330211   0.003361149152   0.000000000000
      0.000390201756  -0.000284691954   0.000000000000
      0.005099128454  -0.003076457198   0.000000000000
   </gradient><!--
   --><jobstep command="DF-HF-SCF" commandset="SCFPRO">
    <!--
    --><cml:symmetry pointGroup="C1"/><!--
    --><cml:atomArray>
     <cml:atom id="1" elementType="H" x3="0.731816873142631" y3="-0.440102385714397" z3="0.0"/>
     <cml:atom id="2" elementType="H" x3="-0.731816873127892" y3="-0.44539415779358" z3="0.0"/>
     <cml:atom id="3" elementType="O" x3="-0.147389077230622E-10" y3="0.807483155979761E-01"
       z3="0.0"/>
    </cml:atomArray><!--
    --><property name="Energy" method="RHF" principal="true" stateSymmetry="1" stateNumber="1"
      value="-76.0570764673405"/><!--
    --><property name="Dipole moment" method="RHF" principal="true" stateSymmetry="1"
      stateNumber="1"
      value="0.498201606473971E-03 -0.733168847864301 0.380887426501062E-14"/><!--
    -->
    <time start="15:42:29" end="15:42:30" cpu="2.42" system="0.02" real="2.45"/>
    <storage units="megabyte" memory="513.84" sf="0.0" df="18.38" eaf="0.0"/>
   </jobstep><!--
   --><jobstep command="DF-LMP2-F12" commandset="CCSD">
    <!--
    --><property name="Energy" method="LMP2-F12/3*A(LOC)" principal="true" stateSymmetry="1"
      stateNumber="1" value="-76.3537379406953"/><!--
    -->
    <time start="15:42:30" end="15:42:43" cpu="12.88" system="0.06" real="12.94"/>
    <storage units="megabyte" memory="513.84" sf="0.0" df="18.38" eaf="0.0"/>
   </jobstep><!--
   --><gradient name="LMP2 GRADIENT" stateSymmetry="1" stateNumber="1">
     -0.003347483510   0.002828880961   0.000000000000
     -0.000317317568   0.000251725150   0.000000000000
      0.003664801078  -0.003080606111   0.000000000000
   </gradient><!--
   --><jobstep command="DF-HF-SCF" commandset="SCFPRO">
    <!--
    --><cml:symmetry pointGroup="C1"/><!--
    --><cml:atomArray>
     <cml:atom id="1" elementType="H" x3="0.731816873142631" y3="-0.450685929894397" z3="0.0"/>
     <cml:atom id="2" elementType="H" x3="-0.731816873127892" y3="-0.44539415779358" z3="0.0"/>
     <cml:atom id="3" elementType="O" x3="-0.147389077230622E-10" y3="0.807483155979761E-01"
       z3="0.0"/>
    </cml:atomArray><!--
    --><property name="Energy" method="RHF" principal="true" stateSymmetry="1" stateNumber="1"
      value="-76.0577082000755"/><!--
    --><property name="Dipole moment" method="RHF" principal="true" stateSymmetry="1"
      stateNumber="1"
      value="-0.507385900117543E-03 -0.737734942969651 -0.98048214756482E-15"/><!--
    -->
    <time start="15:42:44" end="15:42:45" cpu="2.42" system="0.04" real="2.45"/>
    <storage units="megabyte" memory="513.84" sf="0.0" df="18.38" eaf="0.0"/>
   </jobstep><!--
   --><jobstep command="DF-LMP2-F12" commandset="CCSD">
    <!--
    --><property name="Energy" method="LMP2-F12/3*A(LOC)" principal="true" stateSymmetry="1"
      stateNumber="1" value="-76.354598886545"/><!--
    -->
    <time start="15:42:45" end="15:42:58" cpu="12.9" system="0.06" real="12.95"/>
    <storage units="megabyte" memory="513.84" sf="0.0" df="18.38" eaf="0.0"/>
   </jobstep><!--
   --><gradient name="LMP2 GRADIENT" stateSymmetry="1" stateNumber="1">
      0.003270291435  -0.002817658565   0.000000000000
      0.000310801025  -0.000250542420   0.000000000000
     -0.003581092460   0.003068200985   0.000000000000
   </gradient><!--
   --><jobstep command="DF-HF-SCF" commandset="SCFPRO">
    <!--
    --><cml:symmetry pointGroup="C1"/><!--
    --><cml:atomArray>
     <cml:atom id="1" elementType="H" x3="0.731816873142631" y3="-0.445394157804397"
       z3="0.529177209E-02"/>
     <cml:atom id="2" elementType="H" x3="-0.731816873127892" y3="-0.44539415779358" z3="0.0"/>
     <cml:atom id="3" elementType="O" x3="-0.147389077230622E-10" y3="0.807483155979761E-01"
       z3="0.0"/>
    </cml:atomArray><!--
    --><property name="Energy" method="RHF" principal="true" stateSymmetry="1" stateNumber="1"
      value="-76.0574078967641"/><!--
    --><property name="Dipole moment" method="RHF" principal="true" stateSymmetry="1"
      stateNumber="1"
      value="-0.252841006319228E-05 -0.735451463728409 0.369844338933102E-02"/><!--
    -->
    <time start="15:43:00" end="15:43:01" cpu="2.44" system="0.0" real="2.45"/>
    <storage units="megabyte" memory="513.84" sf="0.0" df="18.38" eaf="0.0"/>
   </jobstep><!--
   --><jobstep command="DF-LMP2-F12" commandset="CCSD">
    <!--
    --><property name="Energy" method="LMP2-F12/3*A(LOC)" principal="true" stateSymmetry="1"
      stateNumber="1" value="-76.3541838229984"/><!--
    -->
    <time start="15:43:01" end="15:43:14" cpu="13.04" system="0.1" real="13.15"/>
    <storage units="megabyte" memory="513.84" sf="0.0" df="18.38" eaf="0.0"/>
   </jobstep><!--
   --><gradient name="LMP2 GRADIENT" stateSymmetry="1" stateNumber="1">
      0.000017826076  -0.000012737786   0.000000141016
      0.000000390804   0.000000197463   0.000000003010
     -0.000018216880   0.000012540323  -0.000000144026
   </gradient><!--
    5 tasks completed, CPU=    77.40 sec, Elapsed=    77.40 sec
   --><jobstep command="DF-HF-SCF" commandset="SCFPRO">
    <!--
    --><cml:symmetry pointGroup="C1"/><!--
    --><cml:atomArray>
     <cml:atom id="1" elementType="H" x3="0.731816873142631" y3="-0.445394157804397" z3="0.0"/>
     <cml:atom id="2" elementType="H" x3="-0.726525101037892" y3="-0.44539415779358" z3="0.0"/>
     <cml:atom id="3" elementType="O" x3="-0.147389077230622E-10" y3="0.807483155979761E-01"
       z3="0.0"/>
    </cml:atomArray><!--
    --><property name="Energy" method="RHF" principal="true" stateSymmetry="1" stateNumber="1"
      value="-76.0569615071623"/><!--
    --><property name="Dipole moment" method="RHF" principal="true" stateSymmetry="1"
      stateNumber="1"
      value="0.299658985876186E-02 -0.736029093707603 -0.193911012760534E-14"/><!--
    -->
    <time start="15:43:15" end="15:43:17" cpu="2.54" system="0.02" real="2.55"/>
    <storage units="megabyte" memory="513.84" sf="0.0" df="18.38" eaf="0.0"/>
   </jobstep><!--
   --><jobstep command="DF-LMP2-F12" commandset="CCSD">
    <!--
    --><property name="Energy" method="LMP2-F12/3*A(LOC)" principal="true" stateSymmetry="1"
      stateNumber="1" value="-76.3535986132987"/><!--
    -->
    <time start="15:43:17" end="15:43:30" cpu="13.12" system="0.08" real="13.23"/>
    <storage units="megabyte" memory="513.84" sf="0.0" df="18.38" eaf="0.0"/>
   </jobstep><!--
   --><gradient name="LMP2 GRADIENT" stateSymmetry="1" stateNumber="1">
     -0.000390201790  -0.000284692148   0.000000000000
      0.005489330173   0.003361149384   0.000000000000
     -0.005099128383  -0.003076457236   0.000000000000
   </gradient><!--
   --><jobstep command="DF-HF-SCF" commandset="SCFPRO">
    <!--
    --><cml:symmetry pointGroup="C1"/><!--
    --><cml:atomArray>
     <cml:atom id="1" elementType="H" x3="0.731816873142631" y3="-0.445394157804397" z3="0.0"/>
     <cml:atom id="2" elementType="H" x3="-0.737108645217892" y3="-0.44539415779358" z3="0.0"/>
     <cml:atom id="3" elementType="O" x3="-0.147389077230622E-10" y3="0.807483155979761E-01"
       z3="0.0"/>
    </cml:atomArray><!--
    --><property name="Energy" method="RHF" principal="true" stateSymmetry="1" stateNumber="1"
      value="-76.0577947875821"/><!--
    --><property name="Dipole moment" method="RHF" principal="true" stateSymmetry="1"
      stateNumber="1"
      value="-0.300158746711798E-02 -0.734882896816355 -0.32965742773024E-15"/><!--
    -->
    <time start="15:43:31" end="15:43:32" cpu="2.52" system="0.04" real="2.54"/>
    <storage units="megabyte" memory="513.84" sf="0.0" df="18.38" eaf="0.0"/>
   </jobstep><!--
   --><jobstep command="DF-LMP2-F12" commandset="CCSD">
    <!--
    --><property name="Energy" method="LMP2-F12/3*A(LOC)" principal="true" stateSymmetry="1"
      stateNumber="1" value="-76.3547094092095"/><!--
    -->
    <time start="15:43:32" end="15:43:46" cpu="13.24" system="0.06" real="13.31"/>
    <storage units="megabyte" memory="513.84" sf="0.0" df="18.38" eaf="0.0"/>
   </jobstep><!--
   --><gradient name="LMP2 GRADIENT" stateSymmetry="1" stateNumber="1">
      0.000384080014   0.000283916362   0.000000000000
     -0.005363438123  -0.003227285686   0.000000000000
      0.004979358108   0.002943369324   0.000000000000
   </gradient><!--
   --><jobstep command="DF-HF-SCF" commandset="SCFPRO">
    <!--
    --><cml:symmetry pointGroup="C1"/><!--
    --><cml:atomArray>
     <cml:atom id="1" elementType="H" x3="0.731816873142631" y3="-0.445394157804397" z3="0.0"/>
     <cml:atom id="2" elementType="H" x3="-0.731816873127892" y3="-0.44010238570358" z3="0.0"/>
     <cml:atom id="3" elementType="O" x3="-0.147389077230622E-10" y3="0.807483155979761E-01"
       z3="0.0"/>
    </cml:atomArray><!--
    --><property name="Energy" method="RHF" principal="true" stateSymmetry="1" stateNumber="1"
      value="-76.0570764673402"/><!--
    --><property name="Dipole moment" method="RHF" principal="true" stateSymmetry="1"
      stateNumber="1"
      value="-0.49820155786351E-03 -0.733168847864311 -0.389226950297444E-14"/><!--
    -->
    <time start="15:43:47" end="15:43:48" cpu="2.52" system="0.04" real="2.55"/>
    <storage units="megabyte" memory="513.84" sf="0.0" df="18.38" eaf="0.0"/>
   </jobstep><!--
   --><jobstep command="DF-LMP2-F12" commandset="CCSD">
    <!--
    --><property name="Energy" method="LMP2-F12/3*A(LOC)" principal="true" stateSymmetry="1"
      stateNumber="1" value="-76.3537379406948"/><!--
    -->
    <time start="15:43:48" end="15:44:01" cpu="13.1" system="0.06" real="13.18"/>
    <storage units="megabyte" memory="513.84" sf="0.0" df="18.38" eaf="0.0"/>
   </jobstep><!--
   --><gradient name="LMP2 GRADIENT" stateSymmetry="1" stateNumber="1">
      0.000317317600   0.000251725164   0.000000000000
      0.003347483598   0.002828881048   0.000000000000
     -0.003664801198  -0.003080606212   0.000000000000
   </gradient><!--
   --><jobstep command="DF-HF-SCF" commandset="SCFPRO">
    <!--
    --><cml:symmetry pointGroup="C1"/><!--
    --><cml:atomArray>
     <cml:atom id="1" elementType="H" x3="0.731816873142631" y3="-0.445394157804397" z3="0.0"/>
     <cml:atom id="2" elementType="H" x3="-0.731816873127892" y3="-0.45068592988358" z3="0.0"/>
     <cml:atom id="3" elementType="O" x3="-0.147389077230622E-10" y3="0.807483155979761E-01"
       z3="0.0"/>
    </cml:atomArray><!--
    --><property name="Energy" method="RHF" principal="true" stateSymmetry="1" stateNumber="1"
      value="-76.057708200076"/><!--
    --><property name="Dipole moment" method="RHF" principal="true" stateSymmetry="1"
      stateNumber="1"
      value="0.507385948308968E-03 -0.737734942969613 -0.286162570212061E-14"/><!--
    -->
    <time start="15:44:03" end="15:44:04" cpu="2.52" system="0.04" real="2.57"/>
    <storage units="megabyte" memory="513.84" sf="0.0" df="18.38" eaf="0.0"/>
   </jobstep><!--
   --><jobstep command="DF-LMP2-F12" commandset="CCSD">
    <!--
    --><property name="Energy" method="LMP2-F12/3*A(LOC)" principal="true" stateSymmetry="1"
      stateNumber="1" value="-76.3545988865451"/><!--
    -->
    <time start="15:44:04" end="15:44:17" cpu="13.0" system="0.08" real="13.09"/>
    <storage units="megabyte" memory="513.84" sf="0.0" df="18.38" eaf="0.0"/>
   </jobstep><!--
   --><gradient name="LMP2 GRADIENT" stateSymmetry="1" stateNumber="1">
     -0.000310800977  -0.000250542408   0.000000000000
     -0.003270291361  -0.002817658468   0.000000000000
      0.003581092337   0.003068200876   0.000000000000
   </gradient><!--
   --><jobstep command="DF-HF-SCF" commandset="SCFPRO">
    <!--
    --><cml:symmetry pointGroup="C1"/><!--
    --><cml:atomArray>
     <cml:atom id="1" elementType="H" x3="0.731816873142631" y3="-0.445394157804397" z3="0.0"/>
     <cml:atom id="2" elementType="H" x3="-0.731816873127892" y3="-0.44539415779358"
       z3="0.529177209E-02"/>
     <cml:atom id="3" elementType="O" x3="-0.147389077230622E-10" y3="0.807483155979761E-01"
       z3="0.0"/>
    </cml:atomArray><!--
    --><property name="Energy" method="RHF" principal="true" stateSymmetry="1" stateNumber="1"
      value="-76.0574078967642"/><!--
    --><property name="Dipole moment" method="RHF" principal="true" stateSymmetry="1"
      stateNumber="1"
      value="0.252850147380668E-05 -0.735451463728437 0.369844338922439E-02"/><!--
    -->
    <time start="15:44:18" end="15:44:20" cpu="2.56" system="0.02" real="2.59"/>
    <storage units="megabyte" memory="513.84" sf="0.0" df="18.38" eaf="0.0"/>
   </jobstep><!--
   --><jobstep command="DF-LMP2-F12" commandset="CCSD">
    <!--
    --><property name="Energy" method="LMP2-F12/3*A(LOC)" principal="true" stateSymmetry="1"
      stateNumber="1" value="-76.3541838229976"/><!--
    -->
    <time start="15:44:20" end="15:44:33" cpu="12.9" system="0.06" real="12.97"/>
    <storage units="megabyte" memory="513.84" sf="0.0" df="18.38" eaf="0.0"/>
   </jobstep><!--
   --><gradient name="LMP2 GRADIENT" stateSymmetry="1" stateNumber="1">
     -0.000000390854   0.000000197237   0.000000003011
     -0.000017826158  -0.000012737598   0.000000141015
      0.000018217012   0.000012540361  -0.000000144027
   </gradient><!--
   10 tasks completed, CPU=   155.90 sec, Elapsed=   155.96 sec
   --><jobstep command="DF-HF-SCF" commandset="SCFPRO">
    <!--
    --><cml:symmetry pointGroup="C1"/><!--
    --><cml:atomArray>
     <cml:atom id="1" elementType="H" x3="0.731816873142631" y3="-0.445394157804397" z3="0.0"/>
     <cml:atom id="2" elementType="H" x3="-0.731816873127892" y3="-0.44539415779358" z3="0.0"/>
     <cml:atom id="3" elementType="O" x3="0.529177207526109E-02" y3="0.807483155979761E-01"
       z3="0.0"/>
    </cml:atomArray><!--
    --><property name="Energy" method="RHF" principal="true" stateSymmetry="1" stateNumber="1"
      value="-76.0573532912353"/><!--
    --><property name="Dipole moment" method="RHF" principal="true" stateSymmetry="1"
      stateNumber="1"
      value="-0.599816795761729E-02 -0.735457665093884 -0.186076793109862E-14"/><!--
    -->
    <time start="15:44:34" end="15:44:35" cpu="2.52" system="0.02" real="2.54"/>
    <storage units="megabyte" memory="513.84" sf="0.0" df="18.38" eaf="0.0"/>
   </jobstep><!--
   --><jobstep command="DF-LMP2-F12" commandset="CCSD">
    <!--
    --><property name="Energy" method="LMP2-F12/3*A(LOC)" principal="true" stateSymmetry="1"
      stateNumber="1" value="-76.3541292189401"/><!--
    -->
    <time start="15:44:35" end="15:44:48" cpu="13.12" system="0.06" real="13.2"/>
    <storage units="megabyte" memory="513.84" sf="0.0" df="18.38" eaf="0.0"/>
   </jobstep><!--
   --><gradient name="LMP2 GRADIENT" stateSymmetry="1" stateNumber="1">
     -0.005098075465   0.003645607932   0.000000000000
     -0.004980372915  -0.003511425003  -0.000000000001
      0.010078448380  -0.000134182929   0.000000000000
   </gradient><!--
   --><jobstep command="DF-HF-SCF" commandset="SCFPRO">
    <!--
    --><cml:symmetry pointGroup="C1"/><!--
    --><cml:atomArray>
     <cml:atom id="1" elementType="H" x3="0.731816873142631" y3="-0.445394157804397" z3="0.0"/>
     <cml:atom id="2" elementType="H" x3="-0.731816873127892" y3="-0.44539415779358" z3="0.0"/>
     <cml:atom id="3" elementType="O" x3="-0.529177210473891E-02" y3="0.807483155979761E-01"
       z3="0.0"/>
    </cml:atomArray><!--
    --><property name="Energy" method="RHF" principal="true" stateSymmetry="1" stateNumber="1"
      value="-76.0573532912344"/><!--
    --><property name="Dipole moment" method="RHF" principal="true" stateSymmetry="1"
      stateNumber="1"
      value="0.59981680490368E-02 -0.735457665093503 0.446133451023317E-15"/><!--
    -->
    <time start="15:44:50" end="15:44:51" cpu="2.54" system="0.02" real="2.55"/>
    <storage units="megabyte" memory="513.84" sf="0.0" df="18.38" eaf="0.0"/>
   </jobstep><!--
   --><jobstep command="DF-LMP2-F12" commandset="CCSD">
    <!--
    --><property name="Energy" method="LMP2-F12/3*A(LOC)" principal="true" stateSymmetry="1"
      stateNumber="1" value="-76.3541292189389"/><!--
    -->
    <time start="15:44:51" end="15:45:04" cpu="13.08" system="0.12" real="13.2"/>
    <storage units="megabyte" memory="513.84" sf="0.0" df="18.38" eaf="0.0"/>
   </jobstep><!--
   --><gradient name="LMP2 GRADIENT" stateSymmetry="1" stateNumber="1">
      0.004980372875  -0.003511425237   0.000000000000
      0.005098075414   0.003645608115  -0.000000000001
     -0.010078448289  -0.000134182878   0.000000000000
   </gradient><!--
   --><jobstep command="DF-HF-SCF" commandset="SCFPRO">
    <!--
    --><cml:symmetry pointGroup="C1"/><!--
    --><cml:atomArray>
     <cml:atom id="1" elementType="H" x3="0.731816873142631" y3="-0.445394157804397" z3="0.0"/>
     <cml:atom id="2" elementType="H" x3="-0.731816873127892" y3="-0.44539415779358" z3="0.0"/>
     <cml:atom id="3" elementType="O" x3="-0.147389080107363E-10" y3="0.860400876879761E-01"
       z3="0.0"/>
    </cml:atomArray><!--
    --><property name="Energy" method="RHF" principal="true" stateSymmetry="1" stateNumber="1"
      value="-76.0580080798834"/><!--
    --><property name="Dipole moment" method="RHF" principal="true" stateSymmetry="1"
      stateNumber="1"
      value="0.716943890654374E-10 -0.740008831449071 -0.325776361545502E-14"/><!--
    -->
    <time start="15:45:05" end="15:45:07" cpu="2.54" system="0.02" real="2.55"/>
    <storage units="megabyte" memory="513.84" sf="0.0" df="18.38" eaf="0.0"/>
   </jobstep><!--
   --><jobstep command="DF-LMP2-F12" commandset="CCSD">
    <!--
    --><property name="Energy" method="LMP2-F12/3*A(LOC)" principal="true" stateSymmetry="1"
      stateNumber="1" value="-76.3550147664313"/><!--
    -->
    <time start="15:45:07" end="15:45:20" cpu="13.12" system="0.08" real="13.2"/>
    <storage units="megabyte" memory="513.84" sf="0.0" df="18.38" eaf="0.0"/>
   </jobstep><!--
   --><gradient name="LMP2 GRADIENT" stateSymmetry="1" stateNumber="1">
      0.002960710376  -0.003068418736   0.000000000000
     -0.002960710298  -0.003068418390  -0.000000000001
     -0.000000000078   0.006136837126   0.000000000000
   </gradient><!--
   --><jobstep command="DF-HF-SCF" commandset="SCFPRO">
    <!--
    --><cml:symmetry pointGroup="C1"/><!--
    --><cml:atomArray>
     <cml:atom id="1" elementType="H" x3="0.731816873142631" y3="-0.445394157804397" z3="0.0"/>
     <cml:atom id="2" elementType="H" x3="-0.731816873127892" y3="-0.44539415779358" z3="0.0"/>
     <cml:atom id="3" elementType="O" x3="-0.147389080107363E-10" y3="0.754565435079761E-01"
       z3="0.0"/>
    </cml:atomArray><!--
    --><property name="Energy" method="RHF" principal="true" stateSymmetry="1" stateNumber="1"
      value="-76.0567445990647"/><!--
    --><property name="Dipole moment" method="RHF" principal="true" stateSymmetry="1"
      stateNumber="1"
      value="0.738026588121209E-10 -0.730876437904728 -0.12201898918032E-14"/><!--
    -->
    <time start="15:45:21" end="15:45:22" cpu="2.54" system="0.02" real="2.56"/>
    <storage units="megabyte" memory="513.84" sf="0.0" df="18.38" eaf="0.0"/>
   </jobstep><!--
   --><jobstep command="DF-LMP2-F12" commandset="CCSD">
    <!--
    --><property name="Energy" method="LMP2-F12/3*A(LOC)" principal="true" stateSymmetry="1"
      stateNumber="1" value="-76.3532928548911"/><!--
    -->
    <time start="15:45:22" end="15:45:36" cpu="13.2" system="0.06" real="13.28"/>
    <storage units="megabyte" memory="513.84" sf="0.0" df="18.38" eaf="0.0"/>
   </jobstep><!--
   --><gradient name="LMP2 GRADIENT" stateSymmetry="1" stateNumber="1">
     -0.003028992060   0.003080491505   0.000000000000
      0.003028992046   0.003080491805  -0.000000000001
      0.000000000014  -0.006160983310   0.000000000000
   </gradient><!--
   --><jobstep command="DF-HF-SCF" commandset="SCFPRO">
    <!--
    --><cml:symmetry pointGroup="C1"/><!--
    --><cml:atomArray>
     <cml:atom id="1" elementType="H" x3="0.731816873142631" y3="-0.445394157804397" z3="0.0"/>
     <cml:atom id="2" elementType="H" x3="-0.731816873127892" y3="-0.44539415779358" z3="0.0"/>
     <cml:atom id="3" elementType="O" x3="-0.147389080107363E-10" y3="0.807483155979761E-01"
       z3="0.529177209E-02"/>
    </cml:atomArray><!--
    --><property name="Energy" method="RHF" principal="true" stateSymmetry="1" stateNumber="1"
      value="-76.0574095260493"/><!--
    --><property name="Dipole moment" method="RHF" principal="true" stateSymmetry="1"
      stateNumber="1"
      value="0.721352173639842E-10 -0.735441824346598 -0.739677136067607E-02"/><!--
    -->
    <time start="15:45:37" end="15:45:38" cpu="2.52" system="0.04" real="2.55"/>
    <storage units="megabyte" memory="513.84" sf="0.0" df="18.38" eaf="0.0"/>
   </jobstep><!--
   --><jobstep command="DF-LMP2-F12" commandset="CCSD">
    <!--
    --><property name="Energy" method="LMP2-F12/3*A(LOC)" principal="true" stateSymmetry="1"
      stateNumber="1" value="-76.35418606601"/><!--
    -->
    <time start="15:45:38" end="15:45:51" cpu="13.16" system="0.06" real="13.24"/>
    <storage units="megabyte" memory="513.84" sf="0.0" df="18.38" eaf="0.0"/>
   </jobstep><!--
   --><gradient name="LMP2 GRADIENT" stateSymmetry="1" stateNumber="1">
      0.000014762536  -0.000015146192  -0.000000160755
     -0.000014762511  -0.000015145840  -0.000000160752
     -0.000000000025   0.000030292032   0.000000321507
   </gradient><!--
   15 tasks completed, CPU=   234.76 sec, Elapsed=   234.85 sec

 Numerical DF-LMP2-F12 hessian completed. CPU-time:   234.76 sec, Elapsed:   234.85 sec

 DF-LMP2-F12 hessian saved to record  5300.2

 FREQUENCIES * CALCULATION OF HARMONIC VIBRATIONAL SPECTRA FOR DF-LMP2-F12


 Permanent Dipole Moment [debye]
   1-  3    0.000000   -1.731117    0.000000

 Dipole Moment Norm    1.7311165 [debye]

 Dipole Moment Derivatives [debye/ang]
                   1             2             3             4             5             6             7             8
         1     1.1655259     0.3446634     0.0000000     1.1655259    -0.3446634     0.0000000    -2.3309728     0.0000000
         2     0.1954475     0.8854927     0.0000000    -0.1954475     0.8854927     0.0000000     0.0000000    -1.7713670
         3     0.0000000     0.0000000     1.6450653     0.0000000     0.0000000     1.6450653     0.0000000     0.0000000
                   9
         1     0.0000000
         2     0.0000000
         3    -3.2900573

 Projecting out rotations and translations

   Low Vibration      Wavenumber
        Nr             [1/cm] 
        1                0.00
        2                0.00
        3                0.00
        4                0.00
        5                0.00
        6                0.00

     Vibration        Wavenumber
        Nr             [1/cm] 
        1             1804.21
        2             4589.23
        3             4649.70

 FREQUENCIES * CALCULATION OF NORMAL MODES FOR DF-LMP2-F12


 Atomic Coordinates

  Nr  Atom  Charge       X              Y              Z

   1   H     1.00    1.382933469   -0.841672979    0.000000000
   2   H     1.00   -1.382933469   -0.841672979    0.000000000
   3   O     8.00    0.000000000    0.152592202    0.000000000

 Frequencies dumped to record   5400.2

 Gradient norm at reference geometry: 0.17941D-04

 Normal Modes
 
                              1 A1        2 A1        3 B2 
 Wavenumbers [cm-1]         1804.21     4589.23     4649.70
 Intensities [km/mol]         65.33       11.91       57.85
 Intensities [relative]      100.00       18.23       88.54
           GX1              0.40268     0.57785     0.54949
           GY1              0.54456    -0.37948    -0.39506
           GZ1              0.00000     0.00000     0.00000
           GX2             -0.40268    -0.57785     0.54949
           GY2              0.54456    -0.37948     0.39506
           GZ2              0.00000     0.00000     0.00000
           GX3              0.00000     0.00000    -0.06923
           GY3             -0.06861     0.04781     0.00000
           GZ3              0.00000     0.00000     0.00000


 Normal Modes of low/zero frequencies
 
                                  1           2           3           4           5
 Wavenumbers [cm-1]            0.00        0.00        0.00        0.00        0.00
 Intensities [km/mol]          0.00        0.00        0.00        0.00        0.00
 Intensities [relative]        0.00        0.00        0.00        0.00        0.00
           GX1             -0.07455     0.22143    -0.20763     0.00000     0.00000
           GY1             -0.25321     0.52814    -0.06143     0.00000     0.00000
           GZ1              0.83132     0.47967    -0.13251     0.00000     0.00000
           GX2             -0.07455     0.22143    -0.20763     0.00000     0.00000
           GY2              0.23996    -0.33059     0.46922     0.00000     0.00000
           GZ2              0.00000     0.00000     0.00000     0.99605     0.00000
           GX3              0.10273    -0.08726    -0.01688     0.00000     0.00000
           GY3             -0.00662     0.09878     0.20389     0.00000     0.00000
           GZ3              0.00000     0.00000     0.00000     0.00000     0.25000
 
                                  6
 Wavenumbers [cm-1]            0.00
 Intensities [km/mol]          0.00
 Intensities [relative]        0.00
           GX1              0.31051
           GY1              0.22062
           GZ1             -0.23107
           GX2              0.31051
           GY2             -0.09201
           GZ2              0.00000
           GX3              0.19813
           GY3              0.06431
           GZ3              0.00000


 FREQUENCIES * CALCULATION OF THERMODYNAMICAL PROPERTIES

 Temperature   298.150 [K]  Pressure   1.00000 [atm]
 Atom  1: H         Mass   1.00794
 Atom  2: H         Mass   1.00794
 Atom  3: O         Mass  15.99940

 Molecular Mass:    18.01528 [a.u.]
 Moments of Inertia           3.85538     5.62521     1.76983 [a.u.]
 Point Group C1    Order of principal axis 1
 Rotational Symmetry factor  1.0
 Rotational Temperatures     22.46526    15.39713    48.93807 [K]
 Rotational Constants       468.10265   320.82595  1019.70967 [GHz]

 Vibrational Temperatures [K]   2595.84  6602.84  6689.84

 Zero-Point vibrational Energy       66.053 [kJ/Mol]
                                     15.787 [kcal/Mol]

 Electronic Energy at 0 [K]:                       -76.354182 [H]
 Electronic Energy + Zero-Point correction:        -76.329024 [H]
 Electronic Energy at     298.150 [K]:             -76.326190 [H]
 Enthalpy H at            298.150 [K]:             -76.325246 [H]
 Free Enthalpy G at       298.150 [K]:             -76.347121 [H]

 Partition Function  Z                 log10(Z)          ln(Z)
 Electronic      0.100000D+01          0.000000          0.000000
 Translation     0.300561D+07          6.477932         14.915989
 Rotation        0.701339D+02          1.845928          4.250407
 Vibration       0.100017D+01          0.000072          0.000166
 Total           0.210830D+09          8.323932         19.166396

                      H(T)-H(0)              Cv                 S
                       [kJ/Mol]          [J/Mol K]          [J/Mol K] 
 Electronic               0.000              0.000              0.000
 Translation              3.718             12.472            144.805
 Rotation                 3.718             12.472             47.812
 Vibration               66.056              0.104              0.013
 Total                   73.493             25.048            192.631

                      H(T)-H(0)              Cv                 S
                     [kcal/Mol]        [cal/Mol K]        [cal/Mol K] 
 Electronic               0.000              0.000              0.000
 Translation              0.889              2.981             34.609
 Rotation                 0.889              2.981             11.427
 Vibration               15.788              0.025              0.003
 Total                   17.565              5.987             46.040
   --><cml:symmetry pointGroup="C1"/><!--
   --><cml:atomArray>
    <cml:atom id="1" elementType="H" x3="-0.46726800184702" y3="0.0" z3="0.731816873177942"/>
    <cml:atom id="2" elementType="H" x3="-0.467268001908391" y3="0.0" z3="-0.731816873092581"/>
    <cml:atom id="3" elementType="O" x3="0.588744715192588E-01" y3="0.0"
      z3="-0.537764656957485E-11"/>
   </cml:atomArray><!--
 Frequency information read from record  5400.2
   --><vibrations>
    <normalCoordinate wavenumber="4649.7" units="inverseCentimetre">
      0.54949431 -0.39506098  0.00000000
      0.54949430  0.39506098  0.00000000
     -0.06923476  0.00000000  0.00000000
    </normalCoordinate>
    <normalCoordinate wavenumber="4589.23" units="inverseCentimetre">
      0.57785154 -0.37947948  0.00000000
     -0.57785155 -0.37947948  0.00000000
      0.00000000  0.04781336  0.00000000
    </normalCoordinate>
    <normalCoordinate wavenumber="1804.21" units="inverseCentimetre">
      0.40267712  0.54456236  0.00000000
     -0.40267712  0.54456236  0.00000000
      0.00000000 -0.06861335  0.00000000
    </normalCoordinate>
    <normalCoordinate wavenumber="0.0" units="inverseCentimetre">
      0.31051113  0.22062140 -0.23107364
      0.31051113 -0.09200570  0.00000000
      0.19812892  0.06430785  0.00000000
    </normalCoordinate>
    <normalCoordinate wavenumber="0.0" units="inverseCentimetre">
      0.00000000  0.00000000  0.00000000
      0.00000000  0.00000000 -0.00000094
      0.00000000  0.00000000  0.25000469
    </normalCoordinate>
    <normalCoordinate wavenumber="0.0" units="inverseCentimetre">
      0.00000000  0.00000000  0.00000000
      0.00000000  0.00000000  0.99605349
      0.00000000  0.00000000  0.00000024
    </normalCoordinate>
    <normalCoordinate wavenumber="0.0" units="inverseCentimetre">
     -0.20763281 -0.06143198 -0.13250591
     -0.20763281  0.46921507  0.00000000
     -0.01687747  0.20389155  0.00000000
    </normalCoordinate>
    <normalCoordinate wavenumber="0.0" units="inverseCentimetre">
      0.22142960  0.52814358  0.47966872
      0.22142960 -0.33058521  0.00000000
     -0.08726353  0.09877919  0.00000000
    </normalCoordinate>
    <normalCoordinate wavenumber="0.0" units="inverseCentimetre">
     -0.07454979 -0.25320584  0.83131680
     -0.07454979  0.23996275  0.00000000
      0.10273291 -0.00662155  0.00000000
    </normalCoordinate>
   </vibrations><!--

 Recomputing wavefunction at initial geometry
   --><jobstep command="DF-HF-SCF" commandset="SCFPRO">
    <!--
    --><cml:symmetry pointGroup="C1"/><!--
    --><cml:atomArray>
     <cml:atom id="1" elementType="H" x3="0.731816873142631" y3="-0.445394157804397" z3="0.0"/>
     <cml:atom id="2" elementType="H" x3="-0.731816873127892" y3="-0.44539415779358" z3="0.0"/>
     <cml:atom id="3" elementType="O" x3="-0.147389080107363E-10" y3="0.807483155979761E-01"
       z3="0.0"/>
    </cml:atomArray><!--
    --><property name="Energy" method="RHF" principal="true" stateSymmetry="1" stateNumber="1"
      value="-76.0574063501228"/><!--
    --><property name="Dipole moment" method="RHF" principal="true" stateSymmetry="1"
      stateNumber="1"
      value="0.72116384569986E-10 -0.735456108881812 0.615774826376302E-14"/><!--
    -->
    <time start="15:45:53" end="15:45:53" cpu="1.82" system="0.02" real="1.83"/>
    <storage units="megabyte" memory="513.84" sf="0.0" df="18.38" eaf="0.0"/>
   </jobstep><!--
   --><jobstep command="DF-LMP2-F12" commandset="CCSD">
    <!--
    --><property name="Energy" method="LMP2-F12/3*A(LOC)" principal="true" stateSymmetry="1"
      stateNumber="1" value="-76.3541817382849"/><!--
    -->
    <time start="15:45:53" end="15:46:06" cpu="12.32" system="0.04" real="12.38"/>
    <storage units="megabyte" memory="513.84" sf="0.0" df="18.38" eaf="0.0"/>
   </jobstep><!--


 **********************************************************************************************************************************
 DATASETS  * FILE   NREC   LENGTH (MB)   RECORD NAMES
              1      23        2.98       500      610      700      900      950      970     1000      129      960     1100   
                                          VAR    BASINP    GEOM    SYMINP    ZMAT    AOBASIS   BASIS     P2S    ABASIS      S 
                                         1400     1410     1200     1210     1080     1600     1650     1700      960(1)  2541   
                                           T        V       H0       H01     AOSYM     SMH    MOLCAS    OPER    ABASIS   FC_mu_i    
                                         2542     2547     5200   
                                        FC_j_i    grad     LMP2   
 
              2       9        0.70       700     1000     2100     4100     4101     6300     5300     5400     5450   
                                         GEOM     BASIS     RHF     CPHF     CPHF    DOMAINS   HESS     FREQ     NMOD   
 
 PROGRAMS   *        TOTAL      FREQ      OPTG  LMP2-F12        HF       INT
 CPU TIMES  *       336.22    246.04     75.50     13.00      1.46      0.04
 REAL TIME  *       338.68 SEC
 DISK USED  *        18.38 MB      
 **********************************************************************************************************************************
   --><time start="15:41:58" end="15:46:06" cpu="246.04" system="1.52" real="247.67"/><!--
   --><storage units="megabyte" memory="513.84" sf="0.0" df="18.38" eaf="0.0"/><!--
  --></jobstep><!--

  OPTG(LMP2-F12)     DF-LMP2-F12        DF-HF   
    -76.35418174    -76.36120482    -76.06107610
 **********************************************************************************************************************************
 Variable memory released
  --><stm:metadataList>
   <stm:metadata name="dc:date" content="2016-07-25T15:46:06+02:00"/>
   <stm:metadata name="dc:creator" content=",,,"/>
   <stm:metadata name="cmlm:insilico" content="Molpro">
    <version major="2008" minor="1" patch_level="5" integer_bits="32" parallelism="serial">
     2008.1
     <date year="2008" month="9" day="5" hour="18" minute="6" second="17">
      2008-09-05T18:06:17
     </date>
    </version>
    <licence id="lasimuniv"/>
    <parallel processes="1" nodes="1" all_processes="1" openmp="1"/>
    <machine hostname="ilmfixe086" architecture="x86_64">
     Linux-3.16.0-4-amd64/ilmfixe086(x86_64) 32 bit version
     <sysinfo name="cpu MHz" content="1204.031"/>
     <sysinfo name="MemTotal" content="16391212 kB"/>
     <sysinfo name="vendor_id" content="GenuineIntel"/>
     <sysinfo name="cpu family" content="6"/>
     <sysinfo name="model name" content="Intel(R) Xeon(R) CPU E5-2609 0 @ 2.40GHz"/>
     <sysinfo name="flags"
       content="fpu vme de pse tsc msr pae mce cx8 apic sep mtrr pge mca cmov pat pse36 clflush dts acpi mmx fxsr sse sse2 ss ht tm pbe syscall nx pdpe1gb rdtscp lm constant_tsc arch_perfmon pebs bts rep_good nopl xtopology nonstop_tsc aperfmperf eagerfpu pni pclmulqdq dtes64 monitor ds_cpl vmx smx est tm2 ssse3 cx16 xtpr pdcm pcid dca sse4_1 sse4_2 x2apic popcnt tsc_deadline_timer aes xsave avx lahf_lm arat epb xsaveopt pln pts dtherm tpr_shadow vnmi flexpriority ept vpid"/>
     <sysinfo name="MemTotal" content="16391212 kB"/>
     <sysinfo name="cache size" content="10240 KB"/>
     <sysinfo name="ncpu" content="8"/>
    </machine>
   </stm:metadata>
  </stm:metadataList><!--
  -->
  <input>
   <p> memory,64,m </p>
   <p> geomtyp=xyz </p>
   <p> geometry={ </p>
   <p> nosym, </p>
   <p> 3                                                                               ! number of atoms </p>
   <p> GeomXYZ </p>
   <p> H         0.748790   -0.462880    0.000000 </p>
   <p> H        -0.748790   -0.462880    0.000000 </p>
   <p> O         0.000000    0.115720    0.000000 </p>
   <p> } </p>
   <p> basis=avtz </p>
   <p> explicit,gem_beta=1.4,core_singles=1 </p>
   <p> local,domsel=0.98,chgmax=0.4 </p>
   <p> df-hf,basis=vtz </p>
   <p> {df-lmp2-f12,ri_basis=vtz,ansatz=3*A(loc) </p>
   <p> explicit,pairs=strong} </p>
   <p> optg </p>
   <p> {frequencies,symm=c1 </p>
   <p> thermo,sym=c1 </p>
   <p> print,thermo} </p>
  </input>
  <!--
 --></job><!--
--></molpro>
