 Entering Gaussian System, Link 0=/opt/software/SGI/GAUSSIAN/gaussian09/g09_D01/g09
 Initial command:
 /opt/software/SGI/GAUSSIAN/gaussian09/g09_D01/l1.exe "/scratch/sim7025/lbarnes/g2_GlcMethylAlpha.dir09/Gau-22179.inp" -scrdir="/scratch/sim7025/lbarnes/g2_GlcMethylAlpha.dir09/"
 Default is to use a total of   8 processors:
                                8 via shared-memory
                                1 via Linda
 Entering Link 1 = /opt/software/SGI/GAUSSIAN/gaussian09/g09_D01/l1.exe PID=     22188.
  
 Copyright (c) 1988,1990,1992,1993,1995,1998,2003,2009,2013,
            Gaussian, Inc.  All Rights Reserved.
  
 This is part of the Gaussian(R) 09 program.  It is based on
 the Gaussian(R) 03 system (copyright 2003, Gaussian, Inc.),
 the Gaussian(R) 98 system (copyright 1998, Gaussian, Inc.),
 the Gaussian(R) 94 system (copyright 1995, Gaussian, Inc.),
 the Gaussian 92(TM) system (copyright 1992, Gaussian, Inc.),
 the Gaussian 90(TM) system (copyright 1990, Gaussian, Inc.),
 the Gaussian 88(TM) system (copyright 1988, Gaussian, Inc.),
 the Gaussian 86(TM) system (copyright 1986, Carnegie Mellon
 University), and the Gaussian 82(TM) system (copyright 1983,
 Carnegie Mellon University). Gaussian is a federally registered
 trademark of Gaussian, Inc.
  
 This software contains proprietary and confidential information,
 including trade secrets, belonging to Gaussian, Inc.
  
 This software is provided under written license and may be
 used, copied, transmitted, or stored only in accord with that
 written license.
  
 The following legend is applicable only to US Government
 contracts under FAR:
  
                    RESTRICTED RIGHTS LEGEND
  
 Use, reproduction and disclosure by the US Government is
 subject to restrictions as set forth in subparagraphs (a)
 and (c) of the Commercial Computer Software - Restricted
 Rights clause in FAR 52.227-19.
  
 Gaussian, Inc.
 340 Quinnipiac St., Bldg. 40, Wallingford CT 06492
  
  
 ---------------------------------------------------------------
 Warning -- This program may not be used in any manner that
 competes with the business of Gaussian, Inc. or will provide
 assistance to any competitor of Gaussian, Inc.  The licensee
 of this program is prohibited from giving any competitor of
 Gaussian, Inc. access to this program.  By using this program,
 the user acknowledges that Gaussian, Inc. is engaged in the
 business of creating and licensing software in the field of
 computational chemistry and represents and warrants to the
 licensee that it is not a competitor of Gaussian, Inc. and that
 it will not use this program in any manner prohibited above.
 ---------------------------------------------------------------
  

 Cite this work as:
 Gaussian 09, Revision D.01,
 M. J. Frisch, G. W. Trucks, H. B. Schlegel, G. E. Scuseria, 
 M. A. Robb, J. R. Cheeseman, G. Scalmani, V. Barone, B. Mennucci, 
 G. A. Petersson, H. Nakatsuji, M. Caricato, X. Li, H. P. Hratchian, 
 A. F. Izmaylov, J. Bloino, G. Zheng, J. L. Sonnenberg, M. Hada, 
 M. Ehara, K. Toyota, R. Fukuda, J. Hasegawa, M. Ishida, T. Nakajima, 
 Y. Honda, O. Kitao, H. Nakai, T. Vreven, J. A. Montgomery, Jr., 
 J. E. Peralta, F. Ogliaro, M. Bearpark, J. J. Heyd, E. Brothers, 
 K. N. Kudin, V. N. Staroverov, T. Keith, R. Kobayashi, J. Normand, 
 K. Raghavachari, A. Rendell, J. C. Burant, S. S. Iyengar, J. Tomasi, 
 M. Cossi, N. Rega, J. M. Millam, M. Klene, J. E. Knox, J. B. Cross, 
 V. Bakken, C. Adamo, J. Jaramillo, R. Gomperts, R. E. Stratmann, 
 O. Yazyev, A. J. Austin, R. Cammi, C. Pomelli, J. W. Ochterski, 
 R. L. Martin, K. Morokuma, V. G. Zakrzewski, G. A. Voth, 
 P. Salvador, J. J. Dannenberg, S. Dapprich, A. D. Daniels, 
 O. Farkas, J. B. Foresman, J. V. Ortiz, J. Cioslowski, 
 and D. J. Fox, Gaussian, Inc., Wallingford CT, 2013.
 
 ******************************************
 Gaussian 09:  ES64L-G09RevD.01 24-Apr-2013
                29-Nov-2014 
 ******************************************
 %Mem=10GB
 %Chk=g2_GlcMethylAlpha
 Default route:  MaxDisk=100GB
 ----------------------------------------------------------------------
 # CAM-B3LYP/6-311++G(2df,2pd) # scf=(XQC,tight) Opt(Tight) # Test # Un
 its(Ang,Deg)
 ----------------------------------------------------------------------
 1/7=10,14=-1,18=20,19=15,26=3,38=1/1,3;
 2/9=110,12=2,17=6,18=5,40=1/2;
 3/5=4,6=6,7=1414,11=2,16=1,25=1,30=1,71=1,74=-40/1,2,3;
 4//1;
 5/5=2,8=3,13=1,32=2,38=5/2,8;
 6/7=2,8=2,9=2,10=2,28=1/1;
 7//1,2,3,16;
 1/7=10,14=-1,18=20,19=15,26=3/3(2);
 2/9=110/2;
 99//99;
 2/9=110/2;
 3/5=4,6=6,7=1414,11=2,16=1,25=1,30=1,71=1,74=-40/1,2,3;
 4/5=5,16=3,69=1/1;
 5/5=2,8=3,13=1,32=2,38=5/2,8;
 7//1,2,3,16;
 1/7=10,14=-1,18=20,19=15,26=3/3(-5);
 2/9=110/2;
 6/7=2,8=2,9=2,10=2,19=2,28=1/1;
 99/9=1/99;
 -----------------------------------------------------------
 Input file generated by NewSaccharides.cpp E = -707.2161723
 -----------------------------------------------------------
 Symbolic Z-matrix:
 Charge =  1 Multiplicity = 1
 6                    0    -0.03623   1.30268  -0.45391 
 8                    0     0.84321   0.63428   0.46476 
 6                    0     0.51464  -0.70427   0.84179 
 8                    0     1.57126  -1.20035   1.59256 
 6                    0     0.41323  -1.59976  -0.39941 
 6                    0    -0.55279  -1.03059  -1.46583 
 8                    0    -1.8793   -1.27719  -1.09886 
 6                    0    -0.22546   0.45616  -1.73316 
 8                    0     1.02286   0.40672  -2.45949 
 6                    0    -1.30081   1.85328   0.20245 
 8                    0    -2.15164   0.78659   0.64415 
 1                    0     0.5299    2.19339  -0.74549 
 1                    0    -0.42709  -0.72545   1.40014 
 1                    0     0.09383  -2.60039  -0.11001 
 1                    0    -0.39104  -1.56205  -2.4082 
 1                    0    -2.17361  -0.62215  -0.43842 
 1                    0    -1.01328   0.87976  -2.36225 
 1                    0     1.22596   1.25796  -2.86369 
 1                    0    -1.82291   2.48925  -0.52211 
 1                    0    -0.99925   2.46775   1.05543 
 1                    0    -2.94414   1.14245   1.06236 
 7                    0     1.82468  -1.70901  -0.95512 
 1                    0     2.47122  -1.7477   -0.15465 
 1                    0     1.94337  -2.53904  -1.53716 
 1                    0     2.01678  -0.86815  -1.53008 
 6                    0     1.72275  -0.63794   2.91276 
 1                    0     2.54032  -1.18241   3.37939 
 1                    0     0.80545  -0.78733   3.48888 
 1                    0     1.96504   0.42321   2.84955 
 

 GradGradGradGradGradGradGradGradGradGradGradGradGradGradGradGradGradGrad
 Berny optimization.
 Initialization pass.
                           ----------------------------
                           !    Initial Parameters    !
                           ! (Angstroms and Degrees)  !
 --------------------------                            --------------------------
 ! Name  Definition              Value          Derivative Info.                !
 --------------------------------------------------------------------------------
 ! R1    R(1,2)                  1.4367         estimate D2E/DX2                !
 ! R2    R(1,8)                  1.5456         estimate D2E/DX2                !
 ! R3    R(1,10)                 1.5275         estimate D2E/DX2                !
 ! R4    R(1,12)                 1.0949         estimate D2E/DX2                !
 ! R5    R(2,3)                  1.4289         estimate D2E/DX2                !
 ! R6    R(3,4)                  1.3879         estimate D2E/DX2                !
 ! R7    R(3,5)                  1.5339         estimate D2E/DX2                !
 ! R8    R(3,13)                 1.095          estimate D2E/DX2                !
 ! R9    R(4,26)                 1.443          estimate D2E/DX2                !
 ! R10   R(5,6)                  1.5474         estimate D2E/DX2                !
 ! R11   R(5,14)                 1.0895         estimate D2E/DX2                !
 ! R12   R(5,22)                 1.5208         estimate D2E/DX2                !
 ! R13   R(6,7)                  1.3983         estimate D2E/DX2                !
 ! R14   R(6,8)                  1.5457         estimate D2E/DX2                !
 ! R15   R(6,15)                 1.0939         estimate D2E/DX2                !
 ! R16   R(7,16)                 0.9756         estimate D2E/DX2                !
 ! R17   R(8,9)                  1.4451         estimate D2E/DX2                !
 ! R18   R(8,17)                 1.0935         estimate D2E/DX2                !
 ! R19   R(9,18)                 0.964          estimate D2E/DX2                !
 ! R20   R(10,11)                1.4342         estimate D2E/DX2                !
 ! R21   R(10,19)                1.0964         estimate D2E/DX2                !
 ! R22   R(10,20)                1.0936         estimate D2E/DX2                !
 ! R23   R(11,21)                0.9641         estimate D2E/DX2                !
 ! R24   R(22,23)                1.0297         estimate D2E/DX2                !
 ! R25   R(22,24)                1.0207         estimate D2E/DX2                !
 ! R26   R(22,25)                1.0366         estimate D2E/DX2                !
 ! R27   R(26,27)                1.0875         estimate D2E/DX2                !
 ! R28   R(26,28)                1.0935         estimate D2E/DX2                !
 ! R29   R(26,29)                1.0903         estimate D2E/DX2                !
 ! A1    A(2,1,8)              110.4491         estimate D2E/DX2                !
 ! A2    A(2,1,10)             113.5602         estimate D2E/DX2                !
 ! A3    A(2,1,12)             103.4297         estimate D2E/DX2                !
 ! A4    A(8,1,10)             116.8541         estimate D2E/DX2                !
 ! A5    A(8,1,12)             106.7641         estimate D2E/DX2                !
 ! A6    A(10,1,12)            104.4328         estimate D2E/DX2                !
 ! A7    A(1,2,3)              117.6309         estimate D2E/DX2                !
 ! A8    A(2,3,4)              107.6082         estimate D2E/DX2                !
 ! A9    A(2,3,5)              110.4            estimate D2E/DX2                !
 ! A10   A(2,3,13)             110.5127         estimate D2E/DX2                !
 ! A11   A(4,3,5)              106.2239         estimate D2E/DX2                !
 ! A12   A(4,3,13)             111.8395         estimate D2E/DX2                !
 ! A13   A(5,3,13)             110.1485         estimate D2E/DX2                !
 ! A14   A(3,4,26)             115.8193         estimate D2E/DX2                !
 ! A15   A(3,5,6)              112.595          estimate D2E/DX2                !
 ! A16   A(3,5,14)             109.9149         estimate D2E/DX2                !
 ! A17   A(3,5,22)             106.037          estimate D2E/DX2                !
 ! A18   A(6,5,14)             109.7468         estimate D2E/DX2                !
 ! A19   A(6,5,22)             110.7316         estimate D2E/DX2                !
 ! A20   A(14,5,22)            107.647          estimate D2E/DX2                !
 ! A21   A(5,6,7)              110.2742         estimate D2E/DX2                !
 ! A22   A(5,6,8)              109.9254         estimate D2E/DX2                !
 ! A23   A(5,6,15)             108.8258         estimate D2E/DX2                !
 ! A24   A(7,6,8)              114.5788         estimate D2E/DX2                !
 ! A25   A(7,6,15)             106.3009         estimate D2E/DX2                !
 ! A26   A(8,6,15)             106.6787         estimate D2E/DX2                !
 ! A27   A(6,7,16)             110.208          estimate D2E/DX2                !
 ! A28   A(1,8,6)              114.1795         estimate D2E/DX2                !
 ! A29   A(1,8,9)              109.2066         estimate D2E/DX2                !
 ! A30   A(1,8,17)             110.6209         estimate D2E/DX2                !
 ! A31   A(6,8,9)              103.7073         estimate D2E/DX2                !
 ! A32   A(6,8,17)             108.6346         estimate D2E/DX2                !
 ! A33   A(9,8,17)             110.2699         estimate D2E/DX2                !
 ! A34   A(8,9,18)             111.2562         estimate D2E/DX2                !
 ! A35   A(1,10,11)            110.8175         estimate D2E/DX2                !
 ! A36   A(1,10,19)            108.6249         estimate D2E/DX2                !
 ! A37   A(1,10,20)            108.0225         estimate D2E/DX2                !
 ! A38   A(11,10,19)           110.6372         estimate D2E/DX2                !
 ! A39   A(11,10,20)           109.954          estimate D2E/DX2                !
 ! A40   A(19,10,20)           108.7134         estimate D2E/DX2                !
 ! A41   A(10,11,21)           110.2862         estimate D2E/DX2                !
 ! A42   A(5,22,23)            107.5407         estimate D2E/DX2                !
 ! A43   A(5,22,24)            112.0061         estimate D2E/DX2                !
 ! A44   A(5,22,25)            108.4447         estimate D2E/DX2                !
 ! A45   A(23,22,24)           109.8601         estimate D2E/DX2                !
 ! A46   A(23,22,25)           110.2012         estimate D2E/DX2                !
 ! A47   A(24,22,25)           108.7718         estimate D2E/DX2                !
 ! A48   A(4,26,27)            106.0437         estimate D2E/DX2                !
 ! A49   A(4,26,28)            109.9213         estimate D2E/DX2                !
 ! A50   A(4,26,29)            110.4645         estimate D2E/DX2                !
 ! A51   A(27,26,28)           109.6459         estimate D2E/DX2                !
 ! A52   A(27,26,29)           110.1875         estimate D2E/DX2                !
 ! A53   A(28,26,29)           110.4831         estimate D2E/DX2                !
 ! D1    D(8,1,2,3)            -54.263          estimate D2E/DX2                !
 ! D2    D(10,1,2,3)            79.2516         estimate D2E/DX2                !
 ! D3    D(12,1,2,3)          -168.1867         estimate D2E/DX2                !
 ! D4    D(2,1,8,6)             48.035          estimate D2E/DX2                !
 ! D5    D(2,1,8,9)            -67.526          estimate D2E/DX2                !
 ! D6    D(2,1,8,17)           170.936          estimate D2E/DX2                !
 ! D7    D(10,1,8,6)           -83.7973         estimate D2E/DX2                !
 ! D8    D(10,1,8,9)           160.6416         estimate D2E/DX2                !
 ! D9    D(10,1,8,17)           39.1036         estimate D2E/DX2                !
 ! D10   D(12,1,8,6)           159.8245         estimate D2E/DX2                !
 ! D11   D(12,1,8,9)            44.2634         estimate D2E/DX2                !
 ! D12   D(12,1,8,17)          -77.2746         estimate D2E/DX2                !
 ! D13   D(2,1,10,11)          -67.935          estimate D2E/DX2                !
 ! D14   D(2,1,10,19)          170.3265         estimate D2E/DX2                !
 ! D15   D(2,1,10,20)           52.5719         estimate D2E/DX2                !
 ! D16   D(8,1,10,11)           62.4565         estimate D2E/DX2                !
 ! D17   D(8,1,10,19)          -59.282          estimate D2E/DX2                !
 ! D18   D(8,1,10,20)         -177.0366         estimate D2E/DX2                !
 ! D19   D(12,1,10,11)        -179.8887         estimate D2E/DX2                !
 ! D20   D(12,1,10,19)          58.3727         estimate D2E/DX2                !
 ! D21   D(12,1,10,20)         -59.3819         estimate D2E/DX2                !
 ! D22   D(1,2,3,4)            172.8712         estimate D2E/DX2                !
 ! D23   D(1,2,3,5)             57.3547         estimate D2E/DX2                !
 ! D24   D(1,2,3,13)           -64.7538         estimate D2E/DX2                !
 ! D25   D(2,3,4,26)            70.9822         estimate D2E/DX2                !
 ! D26   D(5,3,4,26)          -170.774          estimate D2E/DX2                !
 ! D27   D(13,3,4,26)          -50.569          estimate D2E/DX2                !
 ! D28   D(2,3,5,6)            -53.3303         estimate D2E/DX2                !
 ! D29   D(2,3,5,14)          -176.0139         estimate D2E/DX2                !
 ! D30   D(2,3,5,22)            67.906          estimate D2E/DX2                !
 ! D31   D(4,3,5,6)           -169.712          estimate D2E/DX2                !
 ! D32   D(4,3,5,14)            67.6044         estimate D2E/DX2                !
 ! D33   D(4,3,5,22)           -48.4757         estimate D2E/DX2                !
 ! D34   D(13,3,5,6)            68.9922         estimate D2E/DX2                !
 ! D35   D(13,3,5,14)          -53.6914         estimate D2E/DX2                !
 ! D36   D(13,3,5,22)         -169.7715         estimate D2E/DX2                !
 ! D37   D(3,4,26,27)          176.0656         estimate D2E/DX2                !
 ! D38   D(3,4,26,28)           57.6204         estimate D2E/DX2                !
 ! D39   D(3,4,26,29)          -64.5556         estimate D2E/DX2                !
 ! D40   D(3,5,6,7)            -78.0158         estimate D2E/DX2                !
 ! D41   D(3,5,6,8)             49.2531         estimate D2E/DX2                !
 ! D42   D(3,5,6,15)           165.7481         estimate D2E/DX2                !
 ! D43   D(14,5,6,7)            44.7621         estimate D2E/DX2                !
 ! D44   D(14,5,6,8)           172.031          estimate D2E/DX2                !
 ! D45   D(14,5,6,15)          -71.474          estimate D2E/DX2                !
 ! D46   D(22,5,6,7)           163.4648         estimate D2E/DX2                !
 ! D47   D(22,5,6,8)           -69.2664         estimate D2E/DX2                !
 ! D48   D(22,5,6,15)           47.2286         estimate D2E/DX2                !
 ! D49   D(3,5,22,23)           36.9975         estimate D2E/DX2                !
 ! D50   D(3,5,22,24)          157.7968         estimate D2E/DX2                !
 ! D51   D(3,5,22,25)          -82.1584         estimate D2E/DX2                !
 ! D52   D(6,5,22,23)          159.4261         estimate D2E/DX2                !
 ! D53   D(6,5,22,24)          -79.7745         estimate D2E/DX2                !
 ! D54   D(6,5,22,25)           40.2702         estimate D2E/DX2                !
 ! D55   D(14,5,22,23)         -80.6067         estimate D2E/DX2                !
 ! D56   D(14,5,22,24)          40.1927         estimate D2E/DX2                !
 ! D57   D(14,5,22,25)         160.2374         estimate D2E/DX2                !
 ! D58   D(5,6,7,16)            80.127          estimate D2E/DX2                !
 ! D59   D(8,6,7,16)           -44.5161         estimate D2E/DX2                !
 ! D60   D(15,6,7,16)         -162.0696         estimate D2E/DX2                !
 ! D61   D(5,6,8,1)            -46.9942         estimate D2E/DX2                !
 ! D62   D(5,6,8,9)             71.7367         estimate D2E/DX2                !
 ! D63   D(5,6,8,17)          -170.968          estimate D2E/DX2                !
 ! D64   D(7,6,8,1)             77.833          estimate D2E/DX2                !
 ! D65   D(7,6,8,9)           -163.4361         estimate D2E/DX2                !
 ! D66   D(7,6,8,17)           -46.1408         estimate D2E/DX2                !
 ! D67   D(15,6,8,1)          -164.8288         estimate D2E/DX2                !
 ! D68   D(15,6,8,9)           -46.098          estimate D2E/DX2                !
 ! D69   D(15,6,8,17)           71.1973         estimate D2E/DX2                !
 ! D70   D(1,8,9,18)           -71.3357         estimate D2E/DX2                !
 ! D71   D(6,8,9,18)           166.5626         estimate D2E/DX2                !
 ! D72   D(17,8,9,18)           50.4146         estimate D2E/DX2                !
 ! D73   D(1,10,11,21)         179.6132         estimate D2E/DX2                !
 ! D74   D(19,10,11,21)        -59.8361         estimate D2E/DX2                !
 ! D75   D(20,10,11,21)         60.2608         estimate D2E/DX2                !
 --------------------------------------------------------------------------------
 Trust Radius=3.00D-01 FncErr=1.00D-07 GrdErr=1.00D-06
 Number of steps in this run=    167 maximum allowed number of steps=    174.
 GradGradGradGradGradGradGradGradGradGradGradGradGradGradGradGradGradGrad

                          Input orientation:                          
 ---------------------------------------------------------------------
 Center     Atomic      Atomic             Coordinates (Angstroms)
 Number     Number       Type             X           Y           Z
 ---------------------------------------------------------------------
      1          6           0       -0.036226    1.302677   -0.453905
      2          8           0        0.843209    0.634276    0.464759
      3          6           0        0.514640   -0.704269    0.841793
      4          8           0        1.571259   -1.200350    1.592563
      5          6           0        0.413230   -1.599755   -0.399409
      6          6           0       -0.552789   -1.030591   -1.465831
      7          8           0       -1.879300   -1.277191   -1.098856
      8          6           0       -0.225460    0.456160   -1.733164
      9          8           0        1.022864    0.406723   -2.459490
     10          6           0       -1.300808    1.853282    0.202453
     11          8           0       -2.151642    0.786593    0.644149
     12          1           0        0.529895    2.193394   -0.745488
     13          1           0       -0.427089   -0.725449    1.400135
     14          1           0        0.093831   -2.600392   -0.110009
     15          1           0       -0.391042   -1.562050   -2.408204
     16          1           0       -2.173608   -0.622148   -0.438419
     17          1           0       -1.013278    0.879758   -2.362245
     18          1           0        1.225956    1.257961   -2.863694
     19          1           0       -1.822914    2.489247   -0.522107
     20          1           0       -0.999250    2.467749    1.055425
     21          1           0       -2.944137    1.142451    1.062357
     22          7           0        1.824680   -1.709008   -0.955116
     23          1           0        2.471220   -1.747704   -0.154650
     24          1           0        1.943371   -2.539037   -1.537160
     25          1           0        2.016777   -0.868154   -1.530082
     26          6           0        1.722747   -0.637943    2.912759
     27          1           0        2.540321   -1.182409    3.379386
     28          1           0        0.805450   -0.787329    3.488879
     29          1           0        1.965035    0.423207    2.849550
 ---------------------------------------------------------------------
                    Distance matrix (angstroms):
                    1          2          3          4          5
     1  C    0.000000
     2  O    1.436701   0.000000
     3  C    2.451554   1.428921   0.000000
     4  O    3.610704   2.273291   1.387875   0.000000
     5  C    2.937532   2.433632   1.533871   2.338484   0.000000
     6  C    2.595182   2.906505   2.563400   3.727489   1.547384
     7  O    3.235522   3.675684   3.134535   4.376757   2.418464
     8  C    1.545608   2.450438   2.919717   4.127067   2.532511
     9  O    2.438601   2.938586   3.520094   4.393467   2.939650
    10  C    1.527462   2.480240   3.200886   4.416542   3.901747
    11  O    2.438657   3.004083   3.061175   4.325208   3.655440
    12  H    1.094939   1.998427   3.303959   4.250696   3.810690
    13  H    2.775524   2.082652   1.095010   2.062996   2.170001
    14  H    3.920348   3.369718   2.162935   2.653613   1.089515
    15  H    3.485949   3.821144   3.481168   4.470748   2.164147
    16  H    2.876385   3.390504   2.978651   4.299213   2.765677
    17  H    2.185235   3.390982   3.887098   5.162091   3.469241
    18  H    2.720696   3.407943   4.252876   5.101054   3.860021
    19  H    2.145892   3.394559   4.186039   5.441081   4.662117
    20  H    2.136091   2.665551   3.521250   4.511206   4.544913
    21  H    3.283393   3.867733   3.927106   5.114551   4.574753
    22  N    3.575532   2.910380   2.440202   2.610292   1.520835
    23  H    3.960008   2.950918   2.431020   2.040167   2.077768
    24  H    4.455447   3.909981   3.326720   3.424283   2.125573
    25  H    3.175765   2.759338   2.812306   3.171711   2.094045
    26  C    4.265492   2.895657   2.398504   1.442972   3.689224
    27  H    5.244842   3.830872   3.281978   2.032766   4.356373
    28  H    4.541155   3.341809   2.664307   2.086400   3.991573
    29  H    3.961228   2.643912   2.721385   2.090697   4.129916
                    6          7          8          9         10
     6  C    0.000000
     7  O    1.398254   0.000000
     8  C    1.545652   2.478314   0.000000
     9  O    2.352852   3.620697   1.445097   0.000000
    10  C    3.414590   3.439174   2.618193   3.818105   0.000000
    11  O    3.210997   2.715040   3.077496   4.455824   1.434168
    12  H    3.476374   4.239581   2.136363   2.524483   2.089436
    13  H    2.884904   2.942498   3.354760   4.275615   2.974505
    14  H    2.172705   2.573310   3.475498   3.927582   4.677378
    15  H    1.093928   2.002610   2.134542   2.424423   4.394052
    16  H    1.962003   0.975641   2.575732   3.919278   2.701898
    17  H    2.159871   2.645482   1.093543   2.092628   2.758278
    18  H    3.217985   4.379984   2.006886   0.963968   4.017487
    19  H    3.859157   3.810758   2.855164   4.023532   1.096373
    20  H    4.335256   4.409080   3.524411   4.548780   1.093649
    21  H    4.102730   3.414584   3.959437   5.355539   1.986264
    22  N    2.524567   3.731835   3.081621   2.717051   4.878376
    23  H    3.373141   4.476598   3.823716   3.471538   5.227123
    24  H    2.917415   4.049343   3.703168   3.221107   5.730918
    25  H    2.575497   3.941153   2.612025   1.864664   4.627555
    26  C    4.950180   5.429221   5.155305   5.517447   4.763806
    27  H    5.750348   6.292590   6.039257   6.238629   5.836317
    28  H    5.143262   5.338086   5.466148   6.070924   4.712722
    29  H    5.203410   5.767164   5.079431   5.392019   4.440492
                   11         12         13         14         15
    11  O    0.000000
    12  H    3.331789   0.000000
    13  H    2.414926   3.746887   0.000000
    14  H    4.133107   4.855344   2.463190   0.000000
    15  H    4.234701   4.209051   3.899314   2.568065   0.000000
    16  H    1.776791   3.915418   2.537968   3.026976   2.817980
    17  H    3.216047   2.592475   4.132289   4.290653   2.520261
    18  H    4.892374   2.417919   4.984648   4.873538   3.282471
    19  H    2.089796   2.381835   3.997201   5.454188   4.692614
    20  H    2.079289   2.378412   3.262316   5.314049   5.348451
    21  H    0.964148   4.054835   3.152566   4.961105   5.086985
    22  N    4.959517   4.116935   3.403683   2.122407   2.653768
    23  H    5.332128   4.432842   3.444206   2.526074   3.647673
    24  H    5.708507   5.002056   4.187587   2.336947   2.676323
    25  H    4.984093   3.492776   3.818248   2.952114   2.655218
    26  C    4.710285   4.777252   2.630111   3.954959   5.799545
    27  H    5.776938   5.696705   3.596077   4.491310   6.498709
    28  H    4.394782   5.185605   2.426074   4.092138   6.066908
    29  H    4.684322   4.256464   3.023652   4.626288   6.093958
                   16         17         18         19         20
    16  H    0.000000
    17  H    2.702442   0.000000
    18  H    4.579717   2.325652   0.000000
    19  H    3.132215   2.575281   4.036670   0.000000
    20  H    3.627416   3.768605   4.666329   1.779745   0.000000
    21  H    2.441281   3.940193   5.728603   2.362525   2.353518
    22  N    4.175470   4.090932   3.578274   5.578332   5.427905
    23  H    4.787675   4.890681   4.233630   6.043705   5.592717
    24  H    4.672388   4.594638   4.085532   6.363873   6.359907
    25  H    4.337231   3.595681   2.631403   5.199171   5.187438
    26  C    5.139283   6.133100   6.099890   5.843743   4.528165
    27  H    6.091851   7.060235   6.830740   6.909452   5.590439
    28  H    4.932113   6.350008   6.686944   5.807948   4.446816
    29  H    5.388123   6.020099   5.821014   5.475870   4.023186
                   21         22         23         24         25
    21  H    0.000000
    22  N    5.911229   0.000000
    23  H    6.257811   1.029688   0.000000
    24  H    6.648201   1.020691   1.678144   0.000000
    25  H    5.947600   1.036592   1.694680   1.672510   0.000000
    26  C    5.326687   4.014726   3.346757   4.844029   4.458507
    27  H    6.391626   4.424631   3.579629   5.135096   4.947295
    28  H    4.865333   4.651603   4.119759   5.442831   5.163702
    29  H    5.273646   4.363659   3.740895   5.293258   4.566341
                   26         27         28         29
    26  C    0.000000
    27  H    1.087479   0.000000
    28  H    1.093464   1.782654   0.000000
    29  H    1.090293   1.785968   1.794095   0.000000
 Stoichiometry    C7H16NO5(1+)
 Framework group  C1[X(C7H16NO5)]
 Deg. of freedom    81
 Full point group                 C1      NOp   1
 Largest Abelian subgroup         C1      NOp   1
 Largest concise Abelian subgroup C1      NOp   1
                         Standard orientation:                         
 ---------------------------------------------------------------------
 Center     Atomic      Atomic             Coordinates (Angstroms)
 Number     Number       Type             X           Y           Z
 ---------------------------------------------------------------------
      1          6           0       -0.876702    0.621109   -1.115571
      2          8           0        0.550310    0.519694   -0.983421
      3          6           0        1.078569    0.261810    0.318981
      4          8           0        2.442511    0.044011    0.183262
      5          6           0        0.491623   -1.036704    0.886537
      6          6           0       -1.055492   -1.050701    0.861309
      7          8           0       -1.564194   -0.283588    1.913864
      8          6           0       -1.563237   -0.637909   -0.538990
      9          8           0       -1.242414   -1.776562   -1.368960
     10          6           0       -1.435815    1.973492   -0.677859
     11          8           0       -1.294880    2.149005    0.738535
     12          1           0       -1.034016    0.598467   -2.198913
     13          1           0        0.864659    1.098372    0.992371
     14          1           0        0.844548   -1.189028    1.905990
     15          1           0       -1.402076   -2.074167    1.031825
     16          1           0       -1.538520    0.664073    1.683312
     17          1           0       -2.646670   -0.497708   -0.490501
     18          1           0       -1.693958   -1.727559   -2.219218
     19          1           0       -2.490931    2.027583   -0.970840
     20          1           0       -0.884061    2.755207   -1.207535
     21          1           0       -1.644476    3.006971    1.005479
     22          7           0        1.054203   -2.161220    0.031024
     23          1           0        2.025530   -1.914830   -0.205773
     24          1           0        1.032670   -3.058714    0.516671
     25          1           0        0.483207   -2.234615   -0.831008
     26          6           0        3.235010    1.205092   -0.142323
     27          1           0        4.270416    0.872618   -0.139717
     28          1           0        3.094921    1.977261    0.619120
     29          1           0        2.964945    1.586998   -1.127184
 ---------------------------------------------------------------------
 Rotational constants (GHZ):      0.9444614      0.7472468      0.5959727
 Standard basis: 6-311++G(2df,2pd) (5D, 7F)
 There are   763 symmetry adapted cartesian basis functions of A   symmetry.
 There are   682 symmetry adapted basis functions of A   symmetry.
   682 basis functions,   964 primitive gaussians,   763 cartesian basis functions
    52 alpha electrons       52 beta electrons
       nuclear repulsion energy       992.0791291120 Hartrees.
 NAtoms=   29 NActive=   29 NUniq=   29 SFac= 1.00D+00 NAtFMM=   60 NAOKFM=F Big=F
 Integral buffers will be    131072 words long.
 Raffenetti 2 integral format.
 Two-electron integral symmetry is turned on.
 One-electron integrals computed using PRISM.
 NBasis=   682 RedAO= T EigKep=  1.60D-06  NBF=   682
 NBsUse=   682 1.00D-06 EigRej= -1.00D+00 NBFU=   682
 ExpMin= 3.60D-02 ExpMax= 8.59D+03 ExpMxC= 1.30D+03 IAcc=3 IRadAn=         5 AccDes= 0.00D+00
 Harris functional with IExCor=20419 and IRadAn=       5 diagonalized for initial guess.
 HarFok:  IExCor=20419 AccDes= 0.00D+00 IRadAn=         5 IDoV= 1 UseB2=F ITyADJ=14
 ICtDFT=  3500011 ScaDFX=  1.000000  1.000000  1.000000  1.000000
 FoFCou: FMM=F IPFlag=           0 FMFlag=      100000 FMFlg1=           0
         NFxFlg=           0 DoJE=T BraDBF=F KetDBF=T FulRan=T
         wScrn=  0.000000 ICntrl=     500 IOpCl=  0 I1Cent=   200000004 NGrid=           0
         NMat0=    1 NMatS0=      1 NMatT0=    0 NMatD0=    1 NMtDS0=    0 NMtDT0=    0
 Petite list used in FoFCou.
 Requested convergence on RMS density matrix=1.00D-08 within  64 cycles.
 Requested convergence on MAX density matrix=1.00D-06.
 Requested convergence on             energy=1.00D-06.
 No special actions if energy rises.
 SCF Done:  E(RCAM-B3LYP) =  -706.965934908     A.U. after   15 cycles
            NFock= 15  Conv=0.41D-09     -V/T= 2.0038
 QCSCF skips out because SCF is already converged.

 **********************************************************************

            Population analysis using the SCF density.

 **********************************************************************

 Orbital symmetries:
       Occupied  (A) (A) (A) (A) (A) (A) (A) (A) (A) (A) (A) (A)
                 (A) (A) (A) (A) (A) (A) (A) (A) (A) (A) (A) (A)
                 (A) (A) (A) (A) (A) (A) (A) (A) (A) (A) (A) (A)
                 (A) (A) (A) (A) (A) (A) (A) (A) (A) (A) (A) (A)
                 (A) (A) (A) (A)
       Virtual   (A) (A) (A) (A) (A) (A) (A) (A) (A) (A) (A) (A)
                 (A) (A) (A) (A) (A) (A) (A) (A) (A) (A) (A) (A)
                 (A) (A) (A) (A) (A) (A) (A) (A) (A) (A) (A) (A)
                 (A) (A) (A) (A) (A) (A) (A) (A) (A) (A) (A) (A)
                 (A) (A) (A) (A) (A) (A) (A) (A) (A) (A) (A) (A)
                 (A) (A) (A) (A) (A) (A) (A) (A) (A) (A) (A) (A)
                 (A) (A) (A) (A) (A) (A) (A) (A) (A) (A) (A) (A)
                 (A) (A) (A) (A) (A) (A) (A) (A) (A) (A) (A) (A)
                 (A) (A) (A) (A) (A) (A) (A) (A) (A) (A) (A) (A)
                 (A) (A) (A) (A) (A) (A) (A) (A) (A) (A) (A) (A)
                 (A) (A) (A) (A) (A) (A) (A) (A) (A) (A) (A) (A)
                 (A) (A) (A) (A) (A) (A) (A) (A) (A) (A) (A) (A)
                 (A) (A) (A) (A) (A) (A) (A) (A) (A) (A) (A) (A)
                 (A) (A) (A) (A) (A) (A) (A) (A) (A) (A) (A) (A)
                 (A) (A) (A) (A) (A) (A) (A) (A) (A) (A) (A) (A)
                 (A) (A) (A) (A) (A) (A) (A) (A) (A) (A) (A) (A)
                 (A) (A) (A) (A) (A) (A) (A) (A) (A) (A) (A) (A)
                 (A) (A) (A) (A) (A) (A) (A) (A) (A) (A) (A) (A)
                 (A) (A) (A) (A) (A) (A) (A) (A) (A) (A) (A) (A)
                 (A) (A) (A) (A) (A) (A) (A) (A) (A) (A) (A) (A)
                 (A) (A) (A) (A) (A) (A) (A) (A) (A) (A) (A) (A)
                 (A) (A) (A) (A) (A) (A) (A) (A) (A) (A) (A) (A)
                 (A) (A) (A) (A) (A) (A) (A) (A) (A) (A) (A) (A)
                 (A) (A) (A) (A) (A) (A) (A) (A) (A) (A) (A) (A)
                 (A) (A) (A) (A) (A) (A) (A) (A) (A) (A) (A) (A)
                 (A) (A) (A) (A) (A) (A) (A) (A) (A) (A) (A) (A)
                 (A) (A) (A) (A) (A) (A) (A) (A) (A) (A) (A) (A)
                 (A) (A) (A) (A) (A) (A) (A) (A) (A) (A) (A) (A)
                 (A) (A) (A) (A) (A) (A) (A) (A) (A) (A) (A) (A)
                 (A) (A) (A) (A) (A) (A) (A) (A) (A) (A) (A) (A)
                 (A) (A) (A) (A) (A) (A) (A) (A) (A) (A) (A) (A)
                 (A) (A) (A) (A) (A) (A) (A) (A) (A) (A) (A) (A)
                 (A) (A) (A) (A) (A) (A) (A) (A) (A) (A) (A) (A)
                 (A) (A) (A) (A) (A) (A) (A) (A) (A) (A) (A) (A)
                 (A) (A) (A) (A) (A) (A) (A) (A) (A) (A) (A) (A)
                 (A) (A) (A) (A) (A) (A) (A) (A) (A) (A) (A) (A)
                 (A) (A) (A) (A) (A) (A) (A) (A) (A) (A) (A) (A)
                 (A) (A) (A) (A) (A) (A) (A) (A) (A) (A) (A) (A)
                 (A) (A) (A) (A) (A) (A) (A) (A) (A) (A) (A) (A)
                 (A) (A) (A) (A) (A) (A) (A) (A) (A) (A) (A) (A)
                 (A) (A) (A) (A) (A) (A) (A) (A) (A) (A) (A) (A)
                 (A) (A) (A) (A) (A) (A) (A) (A) (A) (A) (A) (A)
                 (A) (A) (A) (A) (A) (A) (A) (A) (A) (A) (A) (A)
                 (A) (A) (A) (A) (A) (A) (A) (A) (A) (A) (A) (A)
                 (A) (A) (A) (A) (A) (A) (A) (A) (A) (A) (A) (A)
                 (A) (A) (A) (A) (A) (A) (A) (A) (A) (A) (A) (A)
                 (A) (A) (A) (A) (A) (A) (A) (A) (A) (A) (A) (A)
                 (A) (A) (A) (A) (A) (A) (A) (A) (A) (A) (A) (A)
                 (A) (A) (A) (A) (A) (A) (A) (A) (A) (A) (A) (A)
                 (A) (A) (A) (A) (A) (A) (A) (A) (A) (A) (A) (A)
                 (A) (A) (A) (A) (A) (A) (A) (A) (A) (A) (A) (A)
                 (A) (A) (A) (A) (A) (A) (A) (A) (A) (A) (A) (A)
                 (A) (A) (A) (A) (A) (A)
 The electronic state is 1-A.
 Alpha  occ. eigenvalues --  -19.36662 -19.35812 -19.35671 -19.35325 -19.32450
 Alpha  occ. eigenvalues --  -14.65215 -10.50108 -10.46170 -10.45834 -10.45697
 Alpha  occ. eigenvalues --  -10.45520 -10.44145 -10.41220  -1.31337  -1.27623
 Alpha  occ. eigenvalues --   -1.26454  -1.24452  -1.23966  -1.22751  -1.01888
 Alpha  occ. eigenvalues --   -1.01457  -0.94455  -0.91141  -0.86948  -0.85715
 Alpha  occ. eigenvalues --   -0.81903  -0.81066  -0.79193  -0.76580  -0.75758
 Alpha  occ. eigenvalues --   -0.73004  -0.71364  -0.70814  -0.70211  -0.68764
 Alpha  occ. eigenvalues --   -0.67250  -0.66801  -0.65270  -0.63268  -0.62850
 Alpha  occ. eigenvalues --   -0.61892  -0.60620  -0.59121  -0.57055  -0.55482
 Alpha  occ. eigenvalues --   -0.55001  -0.52926  -0.51935  -0.50378  -0.49343
 Alpha  occ. eigenvalues --   -0.48616  -0.48012
 Alpha virt. eigenvalues --   -0.11995  -0.09900  -0.09305  -0.07989  -0.07017
 Alpha virt. eigenvalues --   -0.06699  -0.06268  -0.05626  -0.05185  -0.03823
 Alpha virt. eigenvalues --   -0.03479  -0.03218  -0.02856  -0.02230  -0.01211
 Alpha virt. eigenvalues --   -0.01085  -0.00576  -0.00395   0.00091   0.00691
 Alpha virt. eigenvalues --    0.00978   0.01195   0.01681   0.01958   0.02321
 Alpha virt. eigenvalues --    0.03077   0.03139   0.03533   0.04166   0.04313
 Alpha virt. eigenvalues --    0.04777   0.04809   0.05603   0.05679   0.05941
 Alpha virt. eigenvalues --    0.06334   0.06644   0.07064   0.07498   0.07757
 Alpha virt. eigenvalues --    0.08281   0.08416   0.08860   0.09260   0.09875
 Alpha virt. eigenvalues --    0.10316   0.10424   0.10960   0.11192   0.11590
 Alpha virt. eigenvalues --    0.11947   0.12413   0.12718   0.13000   0.14073
 Alpha virt. eigenvalues --    0.14295   0.14736   0.15201   0.15870   0.16286
 Alpha virt. eigenvalues --    0.16811   0.17258   0.17618   0.18100   0.19058
 Alpha virt. eigenvalues --    0.19947   0.20499   0.21161   0.21619   0.21819
 Alpha virt. eigenvalues --    0.22079   0.22488   0.22783   0.22923   0.24034
 Alpha virt. eigenvalues --    0.24085   0.24975   0.25148   0.25337   0.26350
 Alpha virt. eigenvalues --    0.26468   0.27048   0.27493   0.28023   0.28470
 Alpha virt. eigenvalues --    0.29174   0.29971   0.30352   0.31296   0.32073
 Alpha virt. eigenvalues --    0.32870   0.33015   0.34451   0.34925   0.36392
 Alpha virt. eigenvalues --    0.37022   0.39598   0.39803   0.40790   0.42189
 Alpha virt. eigenvalues --    0.43099   0.43461   0.44133   0.44778   0.45810
 Alpha virt. eigenvalues --    0.46258   0.46764   0.47726   0.48179   0.48657
 Alpha virt. eigenvalues --    0.50007   0.50322   0.50729   0.51004   0.51387
 Alpha virt. eigenvalues --    0.51882   0.52165   0.52762   0.53546   0.54722
 Alpha virt. eigenvalues --    0.55183   0.56111   0.57122   0.57231   0.57558
 Alpha virt. eigenvalues --    0.57833   0.58396   0.59074   0.59637   0.60604
 Alpha virt. eigenvalues --    0.61073   0.61896   0.63019   0.63467   0.64287
 Alpha virt. eigenvalues --    0.64502   0.66307   0.68134   0.69296   0.69640
 Alpha virt. eigenvalues --    0.71859   0.73071   0.74074   0.74338   0.76217
 Alpha virt. eigenvalues --    0.77702   0.78887   0.79452   0.81291   0.81784
 Alpha virt. eigenvalues --    0.82621   0.83232   0.84308   0.85704   0.87827
 Alpha virt. eigenvalues --    0.88518   0.88926   0.89415   0.90465   0.92013
 Alpha virt. eigenvalues --    0.94303   0.94803   0.95904   0.97188   0.98033
 Alpha virt. eigenvalues --    0.98696   0.99382   1.00976   1.01573   1.02316
 Alpha virt. eigenvalues --    1.02912   1.03356   1.04126   1.05295   1.06606
 Alpha virt. eigenvalues --    1.06849   1.08008   1.08230   1.09093   1.10470
 Alpha virt. eigenvalues --    1.11012   1.11646   1.13280   1.14032   1.14636
 Alpha virt. eigenvalues --    1.15838   1.16256   1.17038   1.17859   1.19645
 Alpha virt. eigenvalues --    1.20712   1.21099   1.21893   1.22520   1.23002
 Alpha virt. eigenvalues --    1.24013   1.24679   1.25269   1.25534   1.26933
 Alpha virt. eigenvalues --    1.28733   1.29262   1.29921   1.30219   1.30899
 Alpha virt. eigenvalues --    1.31135   1.31917   1.32530   1.32969   1.33623
 Alpha virt. eigenvalues --    1.34630   1.35692   1.36013   1.36408   1.37158
 Alpha virt. eigenvalues --    1.37780   1.38935   1.39558   1.40406   1.41287
 Alpha virt. eigenvalues --    1.41895   1.42495   1.44480   1.45490   1.45683
 Alpha virt. eigenvalues --    1.46329   1.48646   1.49270   1.50163   1.52199
 Alpha virt. eigenvalues --    1.52726   1.53400   1.54419   1.55392   1.56188
 Alpha virt. eigenvalues --    1.57134   1.58410   1.59648   1.60305   1.63121
 Alpha virt. eigenvalues --    1.64771   1.66695   1.67177   1.69005   1.70786
 Alpha virt. eigenvalues --    1.74054   1.74635   1.76585   1.77906   1.79357
 Alpha virt. eigenvalues --    1.80003   1.81866   1.85143   1.87357   1.90382
 Alpha virt. eigenvalues --    1.93749   1.95254   1.96394   1.98853   1.99925
 Alpha virt. eigenvalues --    2.01285   2.04313   2.08498   2.12367   2.13615
 Alpha virt. eigenvalues --    2.14171   2.16026   2.17561   2.21332   2.22106
 Alpha virt. eigenvalues --    2.24803   2.25529   2.27920   2.29467   2.31971
 Alpha virt. eigenvalues --    2.33233   2.36303   2.40082   2.42261   2.44343
 Alpha virt. eigenvalues --    2.45878   2.48268   2.50048   2.51944   2.53006
 Alpha virt. eigenvalues --    2.53518   2.57752   2.58961   2.60838   2.61666
 Alpha virt. eigenvalues --    2.63957   2.64843   2.67472   2.69062   2.69388
 Alpha virt. eigenvalues --    2.71135   2.71932   2.73790   2.74963   2.75381
 Alpha virt. eigenvalues --    2.76222   2.78014   2.78814   2.80385   2.81286
 Alpha virt. eigenvalues --    2.82712   2.83161   2.84509   2.85538   2.87206
 Alpha virt. eigenvalues --    2.87855   2.89402   2.90348   2.90895   2.92235
 Alpha virt. eigenvalues --    2.92751   2.94111   2.95104   2.96278   2.97809
 Alpha virt. eigenvalues --    2.98285   2.99310   3.01622   3.02327   3.03652
 Alpha virt. eigenvalues --    3.04582   3.05157   3.07105   3.07435   3.08825
 Alpha virt. eigenvalues --    3.09660   3.10992   3.12426   3.13122   3.13489
 Alpha virt. eigenvalues --    3.14835   3.15572   3.16309   3.16916   3.19044
 Alpha virt. eigenvalues --    3.19675   3.20078   3.20867   3.21783   3.22752
 Alpha virt. eigenvalues --    3.23726   3.24362   3.25588   3.25963   3.27270
 Alpha virt. eigenvalues --    3.27540   3.28071   3.29319   3.30894   3.31552
 Alpha virt. eigenvalues --    3.32155   3.34097   3.35045   3.36025   3.36332
 Alpha virt. eigenvalues --    3.37557   3.38951   3.39647   3.40715   3.41371
 Alpha virt. eigenvalues --    3.42374   3.43617   3.44879   3.45569   3.46433
 Alpha virt. eigenvalues --    3.46953   3.47713   3.48470   3.50531   3.50645
 Alpha virt. eigenvalues --    3.50979   3.52057   3.52886   3.53465   3.54480
 Alpha virt. eigenvalues --    3.55158   3.57551   3.57877   3.58651   3.59142
 Alpha virt. eigenvalues --    3.59460   3.59925   3.60948   3.61889   3.62479
 Alpha virt. eigenvalues --    3.63932   3.65214   3.65569   3.66508   3.67607
 Alpha virt. eigenvalues --    3.68511   3.69577   3.70593   3.71053   3.72822
 Alpha virt. eigenvalues --    3.73517   3.74584   3.75153   3.76455   3.77190
 Alpha virt. eigenvalues --    3.77789   3.78569   3.80849   3.81589   3.82853
 Alpha virt. eigenvalues --    3.84316   3.84976   3.85191   3.86575   3.87798
 Alpha virt. eigenvalues --    3.88126   3.88591   3.89735   3.90327   3.90839
 Alpha virt. eigenvalues --    3.91682   3.93174   3.95741   3.96074   3.96391
 Alpha virt. eigenvalues --    3.97537   3.97958   3.99389   4.00517   4.00902
 Alpha virt. eigenvalues --    4.02274   4.03232   4.04118   4.05515   4.06178
 Alpha virt. eigenvalues --    4.06395   4.08217   4.09518   4.10760   4.10900
 Alpha virt. eigenvalues --    4.11814   4.11915   4.13642   4.14418   4.15430
 Alpha virt. eigenvalues --    4.16310   4.17159   4.18764   4.19190   4.20055
 Alpha virt. eigenvalues --    4.20342   4.22131   4.22786   4.24392   4.25638
 Alpha virt. eigenvalues --    4.27538   4.28877   4.29594   4.29813   4.32338
 Alpha virt. eigenvalues --    4.33430   4.34357   4.35359   4.36933   4.38199
 Alpha virt. eigenvalues --    4.40381   4.41770   4.43667   4.43923   4.48762
 Alpha virt. eigenvalues --    4.49633   4.51737   4.52035   4.53441   4.55466
 Alpha virt. eigenvalues --    4.57397   4.58954   4.61971   4.64341   4.65360
 Alpha virt. eigenvalues --    4.65977   4.67109   4.68129   4.70169   4.70854
 Alpha virt. eigenvalues --    4.72303   4.73215   4.75188   4.77244   4.78207
 Alpha virt. eigenvalues --    4.80135   4.81330   4.84340   4.86217   4.88604
 Alpha virt. eigenvalues --    4.89135   4.90767   4.91317   4.92519   4.94505
 Alpha virt. eigenvalues --    4.94948   4.97084   4.97451   4.98949   5.01156
 Alpha virt. eigenvalues --    5.03446   5.03951   5.05466   5.06657   5.09335
 Alpha virt. eigenvalues --    5.10827   5.12093   5.14394   5.16105   5.16471
 Alpha virt. eigenvalues --    5.17269   5.18331   5.19133   5.21064   5.21427
 Alpha virt. eigenvalues --    5.22045   5.24317   5.26257   5.28840   5.30035
 Alpha virt. eigenvalues --    5.31170   5.32857   5.34352   5.35227   5.36047
 Alpha virt. eigenvalues --    5.38264   5.38478   5.39941   5.40353   5.45205
 Alpha virt. eigenvalues --    5.45584   5.45863   5.49378   5.51480   5.52740
 Alpha virt. eigenvalues --    5.54584   5.56714   5.57601   5.59762   5.60306
 Alpha virt. eigenvalues --    5.62198   5.62910   5.66608   5.68854   5.70086
 Alpha virt. eigenvalues --    5.70817   5.72266   5.76577   5.79345   5.80955
 Alpha virt. eigenvalues --    5.83277   5.84593   5.85695   5.87034   5.88902
 Alpha virt. eigenvalues --    5.91294   5.97639   6.01721   6.02242   6.04585
 Alpha virt. eigenvalues --    6.08613   6.14383   6.16336   6.20443   6.22052
 Alpha virt. eigenvalues --    6.24145   6.27368   6.31814   6.34271   6.43523
 Alpha virt. eigenvalues --    6.45098   6.46171   6.50901   6.52891   6.55282
 Alpha virt. eigenvalues --    6.56620   6.58156   6.59104   6.66362   6.71337
 Alpha virt. eigenvalues --    6.74006   6.83339   7.04955   7.08213   7.11346
 Alpha virt. eigenvalues --    7.14491   7.15473   7.19235   7.21926   7.22313
 Alpha virt. eigenvalues --    7.23963   7.25975   7.26506   7.29404   7.33009
 Alpha virt. eigenvalues --    7.34978   7.36201   7.37912   7.49806   7.51761
 Alpha virt. eigenvalues --    7.53155   7.57843   7.59286   7.66912   7.77340
 Alpha virt. eigenvalues --    7.78828   7.82697   7.92394   7.93299   7.99103
 Alpha virt. eigenvalues --    8.02231   8.18781  24.65708  24.68734  24.73132
 Alpha virt. eigenvalues --   24.77292  24.80982  25.00088  25.24287  36.47685
 Alpha virt. eigenvalues --   50.05569  50.10469  50.25011  50.27070  50.31616
          Condensed to atoms (all electrons):
               1          2          3          4          5          6
     1  C    7.638101   0.136565  -0.714369  -0.030549  -0.245287   1.189427
     2  O    0.136565   8.010141   0.384017   0.003456  -0.187631   0.050214
     3  C   -0.714369   0.384017   9.142474   0.229797  -5.817177   2.218297
     4  O   -0.030549   0.003456   0.229797   8.187611  -0.215301   0.048952
     5  C   -0.245287  -0.187631  -5.817177  -0.215301  17.342068  -7.053554
     6  C    1.189427   0.050214   2.218297   0.048952  -7.053554  13.467818
     7  O   -0.078380  -0.001619  -0.022191  -0.003649  -0.064134   0.612081
     8  C   -2.141269   0.040720   0.036065   0.006319   2.162241  -4.346493
     9  O   -0.168889   0.022257   0.026750  -0.000877  -0.164751   0.035083
    10  C   -0.489298  -0.044738   0.030652   0.000845   0.146442  -0.163090
    11  O    0.044974   0.006566   0.090753  -0.000031  -0.109886   0.097967
    12  H    0.527658  -0.062120  -0.000837  -0.002889  -0.026412   0.030216
    13  H    0.037993  -0.059037   0.314746  -0.034031   0.062518  -0.075692
    14  H    0.004638   0.004318  -0.065816   0.003410   0.433270  -0.003828
    15  H    0.033257  -0.004221  -0.089465  -0.000745   0.183682   0.204688
    16  H    0.001884  -0.007805  -0.030880  -0.000370   0.177762  -0.293504
    17  H   -0.002656   0.006774  -0.000022  -0.000136  -0.031745   0.047976
    18  H   -0.045213  -0.001520  -0.014930   0.000140   0.090656  -0.148232
    19  H    0.038897   0.002702  -0.000811   0.000391  -0.007175  -0.001570
    20  H   -0.046620  -0.010081  -0.004873   0.000736   0.011594   0.010507
    21  H   -0.023671  -0.000315   0.001340   0.000219  -0.009296   0.003310
    22  N    0.016134   0.005175   0.593992   0.011714  -0.973011   0.421246
    23  H   -0.000764   0.001527   0.001365   0.015602  -0.032781  -0.011306
    24  H   -0.012094   0.003195  -0.005173   0.002210  -0.006895  -0.001144
    25  H    0.003598  -0.006734   0.026687   0.003231  -0.056040   0.082193
    26  C   -0.021421  -0.014802  -0.098235   0.165477   0.026220  -0.052992
    27  H   -0.002230   0.001358   0.036144  -0.048797  -0.026842   0.005796
    28  H    0.011133  -0.001287   0.020876  -0.053420  -0.027879   0.011417
    29  H   -0.007201   0.001745  -0.024776  -0.050466   0.037930  -0.014980
               7          8          9         10         11         12
     1  C   -0.078380  -2.141269  -0.168889  -0.489298   0.044974   0.527658
     2  O   -0.001619   0.040720   0.022257  -0.044738   0.006566  -0.062120
     3  C   -0.022191   0.036065   0.026750   0.030652   0.090753  -0.000837
     4  O   -0.003649   0.006319  -0.000877   0.000845  -0.000031  -0.002889
     5  C   -0.064134   2.162241  -0.164751   0.146442  -0.109886  -0.026412
     6  C    0.612081  -4.346493   0.035083  -0.163090   0.097967   0.030216
     7  O    7.732872  -0.154732  -0.000106   0.034145  -0.015267  -0.001427
     8  C   -0.154732   9.495345   0.277626   0.326778  -0.046648  -0.080145
     9  O   -0.000106   0.277626   8.064375   0.027587   0.000114  -0.005157
    10  C    0.034145   0.326778   0.027587   5.407213   0.052139  -0.081893
    11  O   -0.015267  -0.046648   0.000114   0.052139   8.175496   0.006321
    12  H   -0.001427  -0.080145  -0.005157  -0.081893   0.006321   0.622592
    13  H   -0.002051   0.036363  -0.000714   0.000799  -0.029819   0.001018
    14  H   -0.006701  -0.012180  -0.001760  -0.001772  -0.000724   0.000905
    15  H   -0.053995   0.035111  -0.009187  -0.005802  -0.000727   0.000565
    16  H    0.293406   0.126069  -0.001493   0.001172  -0.003004   0.000778
    17  H   -0.010301   0.351096  -0.016878  -0.023644   0.005975   0.002469
    18  H    0.000320   0.171815   0.190654  -0.005322  -0.000152   0.001610
    19  H    0.000871  -0.049458  -0.002368   0.410043  -0.060597  -0.005886
    20  H   -0.001834  -0.006753  -0.000220   0.435750  -0.033274  -0.008432
    21  H    0.002369  -0.008517   0.000223   0.067217   0.172982   0.000913
    22  N   -0.004360  -0.123642   0.045907   0.010738   0.000257  -0.001277
    23  H   -0.000898   0.019526   0.002393  -0.002261   0.000123   0.000412
    24  H   -0.000342   0.007262   0.002609   0.002058  -0.000049  -0.000644
    25  H    0.000318  -0.050234   0.004946   0.001653   0.000405   0.001726
    26  C    0.001428   0.021923   0.000214   0.005903   0.000789   0.001107
    27  H   -0.000106  -0.000030  -0.000015   0.000453  -0.000249  -0.000247
    28  H    0.000295  -0.007870   0.000101  -0.001600   0.000719   0.000423
    29  H   -0.000061   0.006714  -0.000230   0.001561   0.000022  -0.000610
              13         14         15         16         17         18
     1  C    0.037993   0.004638   0.033257   0.001884  -0.002656  -0.045213
     2  O   -0.059037   0.004318  -0.004221  -0.007805   0.006774  -0.001520
     3  C    0.314746  -0.065816  -0.089465  -0.030880  -0.000022  -0.014930
     4  O   -0.034031   0.003410  -0.000745  -0.000370  -0.000136   0.000140
     5  C    0.062518   0.433270   0.183682   0.177762  -0.031745   0.090656
     6  C   -0.075692  -0.003828   0.204688  -0.293504   0.047976  -0.148232
     7  O   -0.002051  -0.006701  -0.053995   0.293406  -0.010301   0.000320
     8  C    0.036363  -0.012180   0.035111   0.126069   0.351096   0.171815
     9  O   -0.000714  -0.001760  -0.009187  -0.001493  -0.016878   0.190654
    10  C    0.000799  -0.001772  -0.005802   0.001172  -0.023644  -0.005322
    11  O   -0.029819  -0.000724  -0.000727  -0.003004   0.005975  -0.000152
    12  H    0.001018   0.000905   0.000565   0.000778   0.002469   0.001610
    13  H    0.601333  -0.004517  -0.002572  -0.010741  -0.000394   0.000304
    14  H   -0.004517   0.533985   0.001732   0.000060   0.000623  -0.000212
    15  H   -0.002572   0.001732   0.599755   0.011467  -0.008449   0.001070
    16  H   -0.010741   0.000060   0.011467   0.475899  -0.004244   0.001044
    17  H   -0.000394   0.000623  -0.008449  -0.004244   0.567533  -0.004150
    18  H    0.000304  -0.000212   0.001070   0.001044  -0.004150   0.513305
    19  H   -0.001214  -0.000466   0.000698   0.005294  -0.007025   0.000376
    20  H    0.000608   0.000773  -0.000401  -0.004324   0.002260  -0.000213
    21  H    0.007798  -0.000375  -0.000249   0.002767  -0.000574  -0.000130
    22  N   -0.006118  -0.031865  -0.001848  -0.002485  -0.000777  -0.015324
    23  H    0.002440  -0.000380   0.001085   0.000363  -0.000071  -0.000806
    24  H    0.001075  -0.004677  -0.001176  -0.000470   0.000030   0.000005
    25  H    0.000011   0.004948  -0.008036  -0.001798   0.001203   0.000510
    26  C   -0.002456   0.001101  -0.000825   0.001633   0.000117   0.000454
    27  H   -0.001136  -0.000547  -0.000039  -0.000167   0.000059  -0.000008
    28  H    0.002355  -0.001238   0.000010   0.000260   0.000067  -0.000046
    29  H    0.001047   0.000600   0.000080   0.000313  -0.000155   0.000118
              19         20         21         22         23         24
     1  C    0.038897  -0.046620  -0.023671   0.016134  -0.000764  -0.012094
     2  O    0.002702  -0.010081  -0.000315   0.005175   0.001527   0.003195
     3  C   -0.000811  -0.004873   0.001340   0.593992   0.001365  -0.005173
     4  O    0.000391   0.000736   0.000219   0.011714   0.015602   0.002210
     5  C   -0.007175   0.011594  -0.009296  -0.973011  -0.032781  -0.006895
     6  C   -0.001570   0.010507   0.003310   0.421246  -0.011306  -0.001144
     7  O    0.000871  -0.001834   0.002369  -0.004360  -0.000898  -0.000342
     8  C   -0.049458  -0.006753  -0.008517  -0.123642   0.019526   0.007262
     9  O   -0.002368  -0.000220   0.000223   0.045907   0.002393   0.002609
    10  C    0.410043   0.435750   0.067217   0.010738  -0.002261   0.002058
    11  O   -0.060597  -0.033274   0.172982   0.000257   0.000123  -0.000049
    12  H   -0.005886  -0.008432   0.000913  -0.001277   0.000412  -0.000644
    13  H   -0.001214   0.000608   0.007798  -0.006118   0.002440   0.001075
    14  H   -0.000466   0.000773  -0.000375  -0.031865  -0.000380  -0.004677
    15  H    0.000698  -0.000401  -0.000249  -0.001848   0.001085  -0.001176
    16  H    0.005294  -0.004324   0.002767  -0.002485   0.000363  -0.000470
    17  H   -0.007025   0.002260  -0.000574  -0.000777  -0.000071   0.000030
    18  H    0.000376  -0.000213  -0.000130  -0.015324  -0.000806   0.000005
    19  H    0.638035  -0.048216  -0.006089  -0.000271   0.000167  -0.000090
    20  H   -0.048216   0.604504  -0.010239  -0.000253  -0.000330   0.000092
    21  H   -0.006089  -0.010239   0.505013   0.000271   0.000002   0.000033
    22  N   -0.000271  -0.000253   0.000271   5.846889   0.367203   0.384108
    23  H    0.000167  -0.000330   0.000002   0.367203   0.494929  -0.034085
    24  H   -0.000090   0.000092   0.000033   0.384108  -0.034085   0.534997
    25  H    0.000088   0.000153  -0.000020   0.344647  -0.022053  -0.036067
    26  C    0.000376   0.001680   0.000296  -0.011941  -0.000870   0.000503
    27  H   -0.000046   0.000129   0.000014   0.001594  -0.000895   0.000076
    28  H    0.000097  -0.000179  -0.000069   0.004117   0.000259   0.000089
    29  H    0.000092  -0.000905   0.000053  -0.003770  -0.000537  -0.000032
              25         26         27         28         29
     1  C    0.003598  -0.021421  -0.002230   0.011133  -0.007201
     2  O   -0.006734  -0.014802   0.001358  -0.001287   0.001745
     3  C    0.026687  -0.098235   0.036144   0.020876  -0.024776
     4  O    0.003231   0.165477  -0.048797  -0.053420  -0.050466
     5  C   -0.056040   0.026220  -0.026842  -0.027879   0.037930
     6  C    0.082193  -0.052992   0.005796   0.011417  -0.014980
     7  O    0.000318   0.001428  -0.000106   0.000295  -0.000061
     8  C   -0.050234   0.021923  -0.000030  -0.007870   0.006714
     9  O    0.004946   0.000214  -0.000015   0.000101  -0.000230
    10  C    0.001653   0.005903   0.000453  -0.001600   0.001561
    11  O    0.000405   0.000789  -0.000249   0.000719   0.000022
    12  H    0.001726   0.001107  -0.000247   0.000423  -0.000610
    13  H    0.000011  -0.002456  -0.001136   0.002355   0.001047
    14  H    0.004948   0.001101  -0.000547  -0.001238   0.000600
    15  H   -0.008036  -0.000825  -0.000039   0.000010   0.000080
    16  H   -0.001798   0.001633  -0.000167   0.000260   0.000313
    17  H    0.001203   0.000117   0.000059   0.000067  -0.000155
    18  H    0.000510   0.000454  -0.000008  -0.000046   0.000118
    19  H    0.000088   0.000376  -0.000046   0.000097   0.000092
    20  H    0.000153   0.001680   0.000129  -0.000179  -0.000905
    21  H   -0.000020   0.000296   0.000014  -0.000069   0.000053
    22  N    0.344647  -0.011941   0.001594   0.004117  -0.003770
    23  H   -0.022053  -0.000870  -0.000895   0.000259  -0.000537
    24  H   -0.036067   0.000503   0.000076   0.000089  -0.000032
    25  H    0.478484   0.000310   0.000284   0.000012  -0.000533
    26  C    0.000310   4.716901   0.409889   0.414015   0.429595
    27  H    0.000284   0.409889   0.607489  -0.032424  -0.035315
    28  H    0.000012   0.414015  -0.032424   0.642932  -0.047881
    29  H   -0.000533   0.429595  -0.035315  -0.047881   0.621005
 Mulliken charges:
               1
     1  C    0.345649
     2  O   -0.278821
     3  C   -0.264401
     4  O   -0.238848
     5  C    0.381417
     6  C   -0.370803
     7  O   -0.255950
     8  C   -0.093000
     9  O   -0.328194
    10  C   -0.143725
    11  O   -0.355177
    12  H    0.079263
    13  H    0.160084
    14  H    0.146694
    15  H    0.114538
    16  H    0.261112
    17  H    0.125037
    18  H    0.263877
    19  H    0.093154
    20  H    0.108361
    21  H    0.294726
    22  N    0.122946
    23  H    0.200643
    24  H    0.164596
    25  H    0.226107
    26  C    0.003612
    27  H    0.085807
    28  H    0.064715
    29  H    0.086579
 Sum of Mulliken charges =   1.00000
 Mulliken charges with hydrogens summed into heavy atoms:
               1
     1  C    0.424912
     2  O   -0.278821
     3  C   -0.104317
     4  O   -0.238848
     5  C    0.528111
     6  C   -0.256264
     7  O    0.005162
     8  C    0.032037
     9  O   -0.064317
    10  C    0.057790
    11  O   -0.060451
    22  N    0.714292
    26  C    0.240714
 Electronic spatial extent (au):  <R**2>=           2234.2539
 Charge=              1.0000 electrons
 Dipole moment (field-independent basis, Debye):
    X=              0.8194    Y=             -1.7880    Z=             -2.1473  Tot=              2.9120
 Quadrupole moment (field-independent basis, Debye-Ang):
   XX=            -57.3000   YY=            -44.7130   ZZ=            -72.4867
   XY=             -9.5321   XZ=              8.6382   YZ=              1.6295
 Traceless Quadrupole moment (field-independent basis, Debye-Ang):
   XX=              0.8665   YY=             13.4536   ZZ=            -14.3201
   XY=             -9.5321   XZ=              8.6382   YZ=              1.6295
 Octapole moment (field-independent basis, Debye-Ang**2):
  XXX=             23.1539  YYY=            -10.3624  ZZZ=            -24.9152  XYY=              3.5958
  XXY=             14.6629  XXZ=            -18.7042  XZZ=             -6.7406  YZZ=             -3.8968
  YYZ=             10.7950  XYZ=             -9.5148
 Hexadecapole moment (field-independent basis, Debye-Ang**3):
 XXXX=          -1115.3959 YYYY=           -661.5617 ZZZZ=           -482.3869 XXXY=              8.3192
 XXXZ=             12.3563 YYYX=           -131.5939 YYYZ=             19.6536 ZZZX=             51.6699
 ZZZY=             44.6475 XXYY=           -279.0310 XXZZ=           -291.7451 YYZZ=           -195.7330
 XXYZ=             24.6721 YYXZ=             -7.9230 ZZXY=             -4.5723
 N-N= 9.920791291120D+02 E-N=-3.625684278385D+03  KE= 7.043049137841D+02
 Calling FoFJK, ICntrl=      2127 FMM=F ISym2X=0 I1Cent= 0 IOpClX= 0 NMat=1 NMatS=1 NMatT=0.
 ***** Axes restored to original set *****
 -------------------------------------------------------------------
 Center     Atomic                   Forces (Hartrees/Bohr)
 Number     Number              X              Y              Z
 -------------------------------------------------------------------
      1        6           0.001347734   -0.002968704    0.001804788
      2        8          -0.007002966   -0.004968174   -0.003156447
      3        6           0.005096638    0.002051193   -0.001677254
      4        8          -0.004852788    0.005239756    0.001503735
      5        6           0.002106964    0.002959853   -0.000762662
      6        6          -0.000308899    0.000943204    0.002248995
      7        8           0.006966589    0.004207644    0.001228916
      8        6           0.003553432   -0.002198711    0.001208956
      9        8          -0.006128519    0.002604647    0.003719198
     10        6           0.000426945   -0.005198536   -0.000129676
     11        8           0.002277460    0.005934833   -0.001523712
     12        1          -0.001188010   -0.002047088    0.000254868
     13        1           0.001760165    0.000193362   -0.001041015
     14        1           0.000536602    0.002184277   -0.000505901
     15        1           0.000132446    0.001225194    0.001788792
     16        1           0.000387199   -0.001432467   -0.001572279
     17        1           0.001607856   -0.000940817    0.001532929
     18        1          -0.000674513   -0.002436136    0.001204067
     19        1           0.001176122   -0.001784642    0.001581896
     20        1          -0.000561750   -0.001607260   -0.001821545
     21        1           0.002314844   -0.001114410   -0.001259160
     22        7          -0.003571673    0.001134643    0.001342362
     23        1          -0.002261096    0.000351419   -0.001930639
     24        1          -0.000588437    0.002263499    0.001660259
     25        1          -0.001152838   -0.001889334    0.001656803
     26        6          -0.000991757   -0.002023115   -0.004870237
     27        1          -0.001716323    0.001225164   -0.000916585
     28        1           0.001925644    0.000347940   -0.001494004
     29        1          -0.000617072   -0.002257233   -0.000075450
 -------------------------------------------------------------------
 Cartesian Forces:  Max     0.007002966 RMS     0.002547239

 GradGradGradGradGradGradGradGradGradGradGradGradGradGradGradGradGradGrad
 Berny optimization.
 FormGI is forming the generalized inverse of G from B-inverse, IUseBI=4.
 Internal  Forces:  Max     0.009294018 RMS     0.002502576
 Search for a local minimum.
 Step number   1 out of a maximum of  167
 All quantities printed in internal units (Hartrees-Bohrs-Radians)
 Mixed Optimization -- RFO/linear search
 Second derivative matrix not updated -- first step.
 ITU=  0
     Eigenvalues ---    0.00230   0.00403   0.00417   0.00501   0.01095
     Eigenvalues ---    0.01123   0.01227   0.01240   0.01715   0.01852
     Eigenvalues ---    0.02867   0.03281   0.04106   0.04271   0.04400
     Eigenvalues ---    0.04640   0.04946   0.05076   0.05258   0.05530
     Eigenvalues ---    0.05656   0.05937   0.06067   0.06260   0.06532
     Eigenvalues ---    0.06720   0.07264   0.07558   0.09034   0.10092
     Eigenvalues ---    0.10143   0.10620   0.11237   0.11244   0.13797
     Eigenvalues ---    0.14055   0.16000   0.16000   0.16000   0.16000
     Eigenvalues ---    0.16000   0.16000   0.16000   0.16000   0.16000
     Eigenvalues ---    0.16789   0.17228   0.18346   0.19083   0.20233
     Eigenvalues ---    0.22080   0.25000   0.26275   0.27285   0.27502
     Eigenvalues ---    0.28664   0.29659   0.30286   0.34086   0.34240
     Eigenvalues ---    0.34248   0.34363   0.34394   0.34406   0.34415
     Eigenvalues ---    0.34779   0.34869   0.35106   0.38490   0.38894
     Eigenvalues ---    0.39181   0.39720   0.40396   0.41793   0.42828
     Eigenvalues ---    0.44228   0.45911   0.47691   0.52241   0.54591
     Eigenvalues ---    0.54629
 RFO step:  Lambda=-3.18759135D-03 EMin= 2.30000000D-03
 Linear search not attempted -- first point.
 Iteration  1 RMS(Cart)=  0.04172716 RMS(Int)=  0.00031001
 Iteration  2 RMS(Cart)=  0.00046490 RMS(Int)=  0.00002718
 Iteration  3 RMS(Cart)=  0.00000008 RMS(Int)=  0.00002718
 Variable       Old X    -DE/DX   Delta X   Delta X   Delta X     New X
                                 (Linear)    (Quad)   (Total)
    R1        2.71497  -0.00876   0.00000  -0.02214  -0.02212   2.69285
    R2        2.92078  -0.00788   0.00000  -0.02776  -0.02775   2.89303
    R3        2.88648  -0.00739   0.00000  -0.02465  -0.02465   2.86183
    R4        2.06913  -0.00235   0.00000  -0.00679  -0.00679   2.06235
    R5        2.70027  -0.00929   0.00000  -0.02281  -0.02279   2.67748
    R6        2.62270  -0.00884   0.00000  -0.01841  -0.01841   2.60429
    R7        2.89860  -0.00771   0.00000  -0.02632  -0.02633   2.87227
    R8        2.06927  -0.00205   0.00000  -0.00592  -0.00592   2.06335
    R9        2.72682  -0.00792   0.00000  -0.02006  -0.02006   2.70676
   R10        2.92413  -0.00795   0.00000  -0.02761  -0.02763   2.89650
   R11        2.05888  -0.00230   0.00000  -0.00652  -0.00652   2.05236
   R12        2.87396  -0.00817   0.00000  -0.02670  -0.02670   2.84726
   R13        2.64232  -0.00756   0.00000  -0.01634  -0.01634   2.62597
   R14        2.92086  -0.00797   0.00000  -0.02754  -0.02755   2.89331
   R15        2.06722  -0.00212   0.00000  -0.00610  -0.00610   2.06112
   R16        1.84369  -0.00214   0.00000  -0.00407  -0.00407   1.83962
   R17        2.73084  -0.00835   0.00000  -0.02130  -0.02130   2.70954
   R18        2.06650  -0.00241   0.00000  -0.00693  -0.00693   2.05957
   R19        1.82163  -0.00280   0.00000  -0.00510  -0.00510   1.81653
   R20        2.71019  -0.00718   0.00000  -0.01763  -0.01763   2.69256
   R21        2.07184  -0.00264   0.00000  -0.00767  -0.00767   2.06418
   R22        2.06670  -0.00248   0.00000  -0.00714  -0.00714   2.05955
   R23        1.82198  -0.00286   0.00000  -0.00521  -0.00521   1.81677
   R24        1.94583  -0.00293   0.00000  -0.00680  -0.00680   1.93903
   R25        1.92883  -0.00285   0.00000  -0.00641  -0.00641   1.92242
   R26        1.95887  -0.00267   0.00000  -0.00634  -0.00634   1.95253
   R27        2.05504  -0.00230   0.00000  -0.00649  -0.00649   2.04855
   R28        2.06635  -0.00245   0.00000  -0.00705  -0.00705   2.05930
   R29        2.06035  -0.00233   0.00000  -0.00663  -0.00663   2.05372
    A1        1.92770   0.00097   0.00000  -0.00080  -0.00094   1.92676
    A2        1.98200  -0.00021   0.00000  -0.00686  -0.00700   1.97500
    A3        1.80519  -0.00014   0.00000   0.00654   0.00656   1.81175
    A4        2.03949  -0.00149   0.00000  -0.01240  -0.01248   2.02701
    A5        1.86338  -0.00004   0.00000   0.00521   0.00526   1.86864
    A6        1.82270   0.00110   0.00000   0.01289   0.01295   1.83565
    A7        2.05305  -0.00015   0.00000  -0.00402  -0.00402   2.04903
    A8        1.87812  -0.00028   0.00000  -0.00257  -0.00257   1.87555
    A9        1.92684   0.00028   0.00000  -0.00313  -0.00314   1.92370
   A10        1.92881   0.00001   0.00000   0.00236   0.00235   1.93116
   A11        1.85396  -0.00022   0.00000  -0.00253  -0.00254   1.85141
   A12        1.95197   0.00021   0.00000   0.00215   0.00216   1.95412
   A13        1.92245  -0.00001   0.00000   0.00333   0.00333   1.92579
   A14        2.02143  -0.00268   0.00000  -0.01060  -0.01060   2.01083
   A15        1.96515  -0.00006   0.00000  -0.00344  -0.00353   1.96163
   A16        1.91838  -0.00010   0.00000   0.00250   0.00253   1.92091
   A17        1.85069  -0.00014   0.00000  -0.00714  -0.00719   1.84350
   A18        1.91544   0.00017   0.00000   0.00524   0.00527   1.92071
   A19        1.93263  -0.00044   0.00000  -0.00730  -0.00735   1.92528
   A20        1.87880   0.00059   0.00000   0.01040   0.01042   1.88921
   A21        1.92465  -0.00031   0.00000  -0.00510  -0.00517   1.91948
   A22        1.91856  -0.00004   0.00000  -0.00480  -0.00492   1.91364
   A23        1.89937   0.00017   0.00000   0.00279   0.00281   1.90218
   A24        1.99978  -0.00047   0.00000  -0.00827  -0.00832   1.99146
   A25        1.85530   0.00076   0.00000   0.01399   0.01401   1.86931
   A26        1.86189  -0.00005   0.00000   0.00291   0.00295   1.86485
   A27        1.92349   0.00042   0.00000   0.00255   0.00255   1.92605
   A28        1.99281  -0.00077   0.00000  -0.00804  -0.00807   1.98474
   A29        1.90601  -0.00034   0.00000  -0.00130  -0.00129   1.90472
   A30        1.93070   0.00037   0.00000   0.00044   0.00043   1.93112
   A31        1.81003   0.00050   0.00000   0.00211   0.00209   1.81212
   A32        1.89603   0.00006   0.00000   0.00020   0.00019   1.89622
   A33        1.92457   0.00020   0.00000   0.00720   0.00720   1.93177
   A34        1.94179  -0.00016   0.00000  -0.00101  -0.00101   1.94078
   A35        1.93413  -0.00152   0.00000  -0.00782  -0.00782   1.92631
   A36        1.89586   0.00029   0.00000   0.00005   0.00004   1.89590
   A37        1.88535   0.00032   0.00000   0.00207   0.00207   1.88742
   A38        1.93098   0.00030   0.00000  -0.00131  -0.00133   1.92966
   A39        1.91906   0.00057   0.00000   0.00324   0.00325   1.92231
   A40        1.89741   0.00007   0.00000   0.00402   0.00401   1.90142
   A41        1.92486   0.00010   0.00000   0.00063   0.00063   1.92549
   A42        1.87694  -0.00059   0.00000  -0.00366  -0.00367   1.87327
   A43        1.95487  -0.00003   0.00000   0.00040   0.00040   1.95527
   A44        1.89272  -0.00091   0.00000  -0.00614  -0.00615   1.88657
   A45        1.91742   0.00047   0.00000   0.00398   0.00399   1.92141
   A46        1.92337   0.00054   0.00000   0.00202   0.00200   1.92537
   A47        1.89843   0.00052   0.00000   0.00325   0.00325   1.90168
   A48        1.85081   0.00033   0.00000   0.00244   0.00244   1.85325
   A49        1.91849  -0.00031   0.00000  -0.00210  -0.00210   1.91639
   A50        1.92797  -0.00035   0.00000  -0.00237  -0.00237   1.92560
   A51        1.91368   0.00015   0.00000   0.00140   0.00140   1.91509
   A52        1.92313   0.00011   0.00000   0.00098   0.00098   1.92412
   A53        1.92829   0.00008   0.00000  -0.00025  -0.00025   1.92804
    D1       -0.94707  -0.00014   0.00000  -0.00735  -0.00734  -0.95440
    D2        1.38320  -0.00156   0.00000  -0.03224  -0.03225   1.35095
    D3       -2.93541  -0.00044   0.00000  -0.01636  -0.01638  -2.95179
    D4        0.83837  -0.00012   0.00000   0.01753   0.01752   0.85589
    D5       -1.17855  -0.00005   0.00000   0.02059   0.02058  -1.15797
    D6        2.98340  -0.00032   0.00000   0.01219   0.01219   2.99558
    D7       -1.46254   0.00064   0.00000   0.04026   0.04024  -1.42230
    D8        2.80372   0.00070   0.00000   0.04332   0.04330   2.84703
    D9        0.68249   0.00044   0.00000   0.03492   0.03491   0.71739
   D10        2.78946   0.00016   0.00000   0.02750   0.02750   2.81697
   D11        0.77254   0.00022   0.00000   0.03056   0.03057   0.80311
   D12       -1.34870  -0.00004   0.00000   0.02216   0.02217  -1.32653
   D13       -1.18569  -0.00001   0.00000  -0.00347  -0.00351  -1.18920
   D14        2.97276   0.00040   0.00000   0.00305   0.00301   2.97576
   D15        0.91755  -0.00002   0.00000  -0.00288  -0.00293   0.91462
   D16        1.09007  -0.00027   0.00000  -0.02422  -0.02416   1.06591
   D17       -1.03467   0.00014   0.00000  -0.01769  -0.01764  -1.05231
   D18       -3.08987  -0.00028   0.00000  -0.02363  -0.02358  -3.11345
   D19       -3.13965  -0.00038   0.00000  -0.01548  -0.01548   3.12805
   D20        1.01880   0.00003   0.00000  -0.00895  -0.00896   1.00983
   D21       -1.03641  -0.00039   0.00000  -0.01489  -0.01490  -1.05131
   D22        3.01717  -0.00045   0.00000  -0.00457  -0.00455   3.01262
   D23        1.00103  -0.00018   0.00000   0.00155   0.00156   1.00259
   D24       -1.13017  -0.00036   0.00000  -0.00213  -0.00211  -1.13228
   D25        1.23887  -0.00004   0.00000   0.00271   0.00270   1.24158
   D26       -2.98057   0.00003   0.00000  -0.00352  -0.00352  -2.98409
   D27       -0.88260   0.00000   0.00000   0.00016   0.00016  -0.88244
   D28       -0.93079  -0.00002   0.00000  -0.00970  -0.00970  -0.94049
   D29       -3.07202  -0.00012   0.00000  -0.01588  -0.01587  -3.08789
   D30        1.18518  -0.00069   0.00000  -0.02544  -0.02543   1.15976
   D31       -2.96203   0.00029   0.00000  -0.00366  -0.00366  -2.96570
   D32        1.17992   0.00019   0.00000  -0.00983  -0.00983   1.17009
   D33       -0.84606  -0.00038   0.00000  -0.01940  -0.01939  -0.86546
   D34        1.20414   0.00017   0.00000  -0.00660  -0.00660   1.19755
   D35       -0.93709   0.00007   0.00000  -0.01277  -0.01277  -0.94986
   D36       -2.96307  -0.00050   0.00000  -0.02234  -0.02233  -2.98540
   D37        3.07292   0.00002   0.00000   0.00010   0.00010   3.07303
   D38        1.00567  -0.00018   0.00000  -0.00184  -0.00184   1.00382
   D39       -1.12671   0.00016   0.00000   0.00144   0.00144  -1.12527
   D40       -1.36163   0.00073   0.00000   0.03810   0.03810  -1.32353
   D41        0.85963  -0.00014   0.00000   0.02008   0.02009   0.87972
   D42        2.89285  -0.00012   0.00000   0.02249   0.02249   2.91534
   D43        0.78125   0.00068   0.00000   0.04274   0.04273   0.82398
   D44        3.00251  -0.00019   0.00000   0.02471   0.02472   3.02723
   D45       -1.24746  -0.00017   0.00000   0.02713   0.02712  -1.22033
   D46        2.85300   0.00124   0.00000   0.05436   0.05435   2.90735
   D47       -1.20893   0.00038   0.00000   0.03634   0.03634  -1.17259
   D48        0.82429   0.00040   0.00000   0.03875   0.03874   0.86303
   D49        0.64573   0.00002   0.00000  -0.00202  -0.00203   0.64370
   D50        2.75407   0.00019   0.00000   0.00075   0.00073   2.75481
   D51       -1.43394   0.00021   0.00000   0.00099   0.00097  -1.43297
   D52        2.78251  -0.00039   0.00000  -0.01495  -0.01493   2.76758
   D53       -1.39233  -0.00023   0.00000  -0.01218  -0.01217  -1.40450
   D54        0.70285  -0.00021   0.00000  -0.01194  -0.01193   0.69091
   D55       -1.40685  -0.00008   0.00000  -0.00638  -0.00637  -1.41323
   D56        0.70149   0.00009   0.00000  -0.00362  -0.00361   0.69788
   D57        2.79667   0.00011   0.00000  -0.00337  -0.00338   2.79329
   D58        1.39848  -0.00028   0.00000  -0.00349  -0.00349   1.39499
   D59       -0.77695   0.00039   0.00000   0.01340   0.01339  -0.76356
   D60       -2.82865   0.00020   0.00000   0.00515   0.00516  -2.82349
   D61       -0.82020   0.00047   0.00000  -0.02244  -0.02247  -0.84267
   D62        1.25204  -0.00003   0.00000  -0.02688  -0.02691   1.22513
   D63       -2.98396   0.00048   0.00000  -0.01747  -0.01749  -3.00145
   D64        1.35844  -0.00033   0.00000  -0.03943  -0.03942   1.31903
   D65       -2.85250  -0.00083   0.00000  -0.04387  -0.04385  -2.89635
   D66       -0.80531  -0.00032   0.00000  -0.03445  -0.03444  -0.83975
   D67       -2.87681   0.00031   0.00000  -0.02487  -0.02487  -2.90168
   D68       -0.80456  -0.00019   0.00000  -0.02931  -0.02931  -0.83387
   D69        1.24263   0.00033   0.00000  -0.01989  -0.01990   1.22273
   D70       -1.24504  -0.00039   0.00000  -0.00473  -0.00474  -1.24979
   D71        2.90707   0.00040   0.00000   0.00418   0.00420   2.91126
   D72        0.87990  -0.00003   0.00000  -0.00044  -0.00044   0.87946
   D73        3.13484   0.00010   0.00000   0.00321   0.00320   3.13804
   D74       -1.04434  -0.00035   0.00000  -0.00277  -0.00276  -1.04710
   D75        1.05175   0.00030   0.00000   0.00349   0.00349   1.05524
         Item               Value     Threshold  Converged?
 Maximum Force            0.009294     0.000015     NO 
 RMS     Force            0.002503     0.000010     NO 
 Maximum Displacement     0.171938     0.000060     NO 
 RMS     Displacement     0.041685     0.000040     NO 
 Predicted change in Energy=-1.660762D-03
 GradGradGradGradGradGradGradGradGradGradGradGradGradGradGradGradGradGrad

                          Input orientation:                          
 ---------------------------------------------------------------------
 Center     Atomic      Atomic             Coordinates (Angstroms)
 Number     Number       Type             X           Y           Z
 ---------------------------------------------------------------------
      1          6           0       -0.018810    1.289715   -0.456264
      2          8           0        0.849933    0.624529    0.456653
      3          6           0        0.509054   -0.697479    0.835582
      4          8           0        1.557466   -1.198631    1.576475
      5          6           0        0.400266   -1.584795   -0.393667
      6          6           0       -0.560535   -1.013987   -1.442668
      7          8           0       -1.875611   -1.213524   -1.040469
      8          6           0       -0.207322    0.449370   -1.721969
      9          8           0        1.039856    0.372644   -2.425194
     10          6           0       -1.284001    1.807559    0.195339
     11          8           0       -2.112429    0.722028    0.602148
     12          1           0        0.539892    2.181830   -0.744400
     13          1           0       -0.428348   -0.707957    1.395370
     14          1           0        0.086126   -2.583684   -0.105451
[...]
 4421,-0.00028986,-0.00060242,0.00023680,-0.00048729,-0.00016461,0.0002
 9222,-0.00028493,0.00004252,-0.00016880,-0.00013162,-0.00036677,0.0000
 3327,-0.00000086,0.00000046,0.00035636,-0.00008478,-0.00006619,0.00005
 183,-0.00000807,0.00000230,0.00000200,0.00002904,-0.00001339,-0.000040
 97,0.00001032,0.00001048,-0.18792664,0.00703276,-0.16727039,0.20833107
 ,0.00061314,-0.00056321,0.00096042,-0.00146869,0.00056424,-0.00047742,
 0.00484950,0.00068814,-0.00031362,-0.00135317,-0.00153469,0.00146181,0
 .00113749,0.00003600,0.00141005,0.00037318,0.00042280,-0.00090885,0.00
 041766,-0.00021819,0.00010862,-0.00060452,0.00030051,0.00039931,0.0003
 4788,-0.00246186,0.00089411,-0.00003530,0.00014669,-0.00026065,-0.0001
 7421,-0.00011099,-0.00006362,0.00001663,0.00004758,-0.00005067,-0.0003
 0373,0.00006437,0.00006117,-0.00060187,-0.00020075,-0.00025932,-0.0000
 5967,-0.00005137,0.00005676,0.00000410,0.00020234,0.00018538,0.0000936
 5,-0.00007491,-0.00013139,0.00057976,-0.00023110,0.00020533,-0.0001101
 0,0.00003494,0.00002528,0.00004520,-0.00005386,-0.00002992,0.00003846,
 0.00000350,-0.00000097,0.00812245,-0.06533963,0.01169851,-0.01043257,0
 .05918283,0.00049527,-0.00011161,0.00103492,-0.00068378,0.00153146,-0.
 00281864,0.00585742,-0.00347897,0.00604965,-0.00202747,0.00136894,0.00
 041655,0.00205970,-0.00019678,0.01680143,0.00149396,0.00015874,-0.0029
 3901,0.00253568,-0.00084319,-0.00001205,-0.00070665,0.00050531,0.00063
 980,0.00089541,-0.00058155,0.00000156,-0.00013600,0.00004084,-0.000111
 99,-0.00020933,-0.00010611,-0.00043100,-0.00010715,0.00012792,-0.00016
 111,-0.00113374,0.00070032,-0.00071595,0.00066117,0.00007175,-0.000079
 42,-0.00025054,0.00002710,-0.00045073,0.00000511,0.00053580,0.00064416
 ,0.00007209,-0.00014965,-0.00010703,0.00000692,0.00009552,0.00004715,-
 0.00009564,0.00005267,0.00000883,0.00007063,-0.00008304,-0.00004439,0.
 00002661,0.00000602,0.00006687,-0.16096842,0.00921149,-0.25243806,0.17
 587136,-0.01105966,0.26188103,0.00005923,-0.00015753,0.00023658,0.0004
 7061,-0.00052789,-0.00073577,-0.00783755,-0.00068370,0.00128937,0.0007
 4145,-0.00041336,-0.00190609,-0.00158192,0.02789208,0.01905867,-0.0000
 3951,0.00060469,0.00178392,0.00039282,-0.00078989,-0.00078287,0.000317
 55,0.00010209,-0.00015721,-0.00012673,-0.00021415,0.00019076,-0.000028
 66,-0.00004616,0.00004228,-0.00004575,-0.00007159,-0.00019272,-0.00002
 890,-0.00001665,-0.00007459,0.00055726,0.00087728,0.00126495,0.0016032
 6,-0.00081552,0.00000328,-0.00039541,-0.00004062,-0.00118623,0.0001238
 1,0.00025227,0.00027228,-0.00001655,-0.00003529,-0.00000012,0.00011204
 ,-0.00001494,-0.00011635,0.00000432,0.00001402,-0.00000076,0.00001106,
 -0.00001077,-0.00001675,-0.00001136,0.00000777,0.00001811,-0.06163898,
 0.03729287,0.02258230,0.00536181,-0.02274906,-0.00998922,0.06153986,0.
 00003512,-0.00005754,-0.00000112,0.00028014,0.00041394,-0.00030648,-0.
 00154868,-0.00005382,0.00071193,-0.00010812,0.00007111,0.00101401,0.00
 204199,0.00301033,0.00167293,0.00075168,-0.00065958,0.00033116,-0.0008
 0737,0.00016727,0.00015940,0.00007264,-0.00002136,-0.00025905,0.000000
 55,-0.00001715,0.00080492,0.00006982,-0.00003729,0.00003111,-0.0001195
 7,0.00007258,0.00006304,-0.00000500,0.00000908,-0.00001017,0.00003846,
 0.00028719,0.00041197,-0.00094943,0.00115439,0.00078683,0.00028616,0.0
 0015175,0.00017996,0.00004429,-0.00014796,-0.00008825,-0.00004805,0.00
 005138,0.00001712,-0.00001998,0.00004380,0.00022413,-0.00000012,-0.000
 00443,-0.00001253,-0.00001224,0.00000040,0.00002050,0.00004770,0.00001
 108,-0.00002775,0.03350998,-0.30009066,-0.16806364,-0.00170998,0.00399
 080,0.00195755,-0.03556440,0.31271069,0.00033080,-0.00029665,0.0001979
 7,-0.00058744,0.00056186,0.00047934,0.00207227,0.00061460,-0.00120212,
 0.00070823,-0.00018129,-0.00028941,0.00222044,-0.00779006,-0.00761592,
 0.00012892,0.00046955,0.00200672,-0.00039903,0.00001051,-0.00046817,0.
 00009479,-0.00014706,-0.00017875,-0.00065095,0.00069906,-0.00152681,-0
 .00000386,0.00001335,-0.00004189,-0.00003815,0.00001377,0.00000688,0.0
 0000236,-0.00000246,-0.00002767,-0.00023724,-0.00023237,-0.00025096,-0
 .00028585,0.00053905,0.00042788,-0.00019147,-0.00017440,-0.00030614,0.
 00005283,-0.00000154,-0.00007574,-0.00001002,0.00007314,0.00000563,-0.
 00016852,0.00001329,-0.00002239,-0.00002679,0.00000770,-0.00000022,0.0
 0001047,-0.00000882,-0.00000397,0.00002081,-0.00000645,0.00000346,0.01
 978316,-0.16635016,-0.17638930,0.00635114,-0.02391210,-0.01271560,-0.0
 2601694,0.18063966,0.18051733,0.00035031,0.00024115,0.00081529,0.00006
 181,0.00130450,-0.00123754,0.00008089,-0.00156193,0.00077277,-0.000495
 81,-0.00018989,-0.00077567,-0.00785747,-0.02966555,0.01858298,-0.00073
 077,-0.00111114,0.00030696,0.00125342,0.00044854,-0.00077988,-0.005499
 17,0.00202385,0.00045242,-0.00405142,-0.00379707,0.00255621,-0.0003579
 9,-0.00010020,-0.00016017,0.00015987,0.00001838,-0.00026134,0.00004460
 ,0.00012257,0.00002344,0.00015137,0.00019709,0.00001443,-0.00545086,0.
 00215427,0.00251966,-0.00029941,-0.00022472,-0.00054626,-0.00000490,0.
 00011730,0.00033198,0.00030075,-0.00008403,-0.00009227,0.00355944,-0.0
 0067357,0.00051590,-0.00004379,0.00006680,0.00001824,0.00011962,-0.000
 03747,-0.00009811,-0.00005229,0.00000492,0.00005893,-0.06742998,-0.049
 23296,0.03139746,0.00650481,0.02197279,-0.01075486,0.00016250,0.003921
 38,-0.00329037,0.07941140,-0.00070874,0.00010355,-0.00096369,-0.000540
 66,-0.00327438,0.00254882,0.00121459,0.00513687,-0.00129001,0.00084302
 ,-0.00162702,-0.00142941,-0.00774962,0.00574542,0.00089572,-0.00081064
 ,0.00359409,-0.00162445,0.00107812,-0.00218395,0.00098810,0.00743487,0
 .00151458,-0.00560443,-0.00670973,0.00020547,-0.00038658,0.00092300,0.
 00041826,0.00012525,-0.00043515,-0.00062066,0.00035271,0.00007411,-0.0
 0060327,-0.00015452,-0.00032809,-0.00086016,-0.00041046,0.00214229,-0.
 00000783,-0.00091578,-0.00015872,-0.00000694,-0.00031016,0.00001401,0.
 00069906,-0.00007486,-0.00149727,-0.00037317,0.00104175,-0.00229675,-0
 .00136615,0.00057160,0.00007248,-0.00014649,-0.00000109,-0.00023211,0.
 00004264,0.00015623,0.00004055,-0.00004146,-0.00007301,-0.04556698,-0.
 26199302,0.12920189,0.00353385,0.00586453,0.00030694,-0.00493561,-0.02
 100769,0.01541136,0.05415554,0.27063970,0.00271591,-0.00180837,0.00164
 865,-0.00221680,0.00203017,-0.00024647,0.00080744,-0.00001045,-0.00162
 729,-0.00044293,-0.00011422,0.00024186,0.00703258,0.00743116,-0.006834
 84,-0.00045015,-0.00135489,0.00297887,-0.00051577,0.00108425,-0.001354
 32,-0.00366213,-0.00218516,0.00545205,0.00357343,-0.00103190,-0.004737
 37,-0.00060684,-0.00010663,-0.00050466,0.00005588,0.00021498,-0.000260
 65,0.00004182,0.00037125,0.00002128,0.00003542,0.00007822,0.00034130,0
 .00005129,-0.00025218,0.00022117,-0.00025307,-0.00047553,-0.00015370,0
 .00005456,-0.00015884,0.00019252,0.00107314,0.00015760,-0.00096183,0.0
 0223451,0.00000861,-0.00060893,-0.00021576,0.00014260,0.00003573,0.000
 20900,-0.00010422,-0.00016171,0.00002141,0.00001384,0.00005279,0.02970
 701,0.13457382,-0.15573244,0.00683613,0.02047573,-0.01258523,-0.005611
 01,-0.02002100,0.01775000,-0.04041136,-0.13872447,0.15734418,0.0001977
 0,-0.00055407,0.00007664,0.00059851,-0.00117030,-0.00024285,-0.0098869
 3,-0.01148358,-0.03443154,-0.07985326,0.01715092,0.00737738,-0.0051799
 2,0.00324405,-0.00289339,0.00081931,-0.00101874,-0.00130455,-0.0000151
 5,-0.00005257,0.00039469,-0.00017056,-0.00004960,0.00006058,0.00011079
 ,-0.00019943,0.00012079,0.00030762,0.00036391,-0.00008467,-0.00001169,
 -0.00036391,0.00037719,0.00002119,-0.00000221,0.00007817,0.00129778,-0
 .00102536,-0.00231454,0.00005734,-0.00002574,0.00006647,-0.00032500,0.
 00016157,-0.00033979,0.00000021,-0.00000636,-0.00016774,0.00001580,-0.
 00000176,-0.00005337,0.00006054,0.00000323,-0.00000188,-0.00002261,-0.
 00005178,0.00001332,0.00001981,-0.00004020,-0.00001162,-0.00003203,0.0
 0004456,-0.00006831,0.00072915,0.00060046,0.00322751,0.00152194,-0.000
 80386,-0.00296180,0.00027447,-0.00021326,0.00025083,0.00005306,0.00050
 205,-0.00007202,0.61688540,-0.00027615,-0.00047010,0.00000025,0.001208
 16,-0.00292948,0.00160312,-0.00271530,0.00951456,0.01157640,0.00444721
 ,-0.09873797,-0.07108099,0.00183826,-0.00032622,0.00077326,-0.00044509
 ,0.00082274,0.00015464,0.00040380,-0.00026961,0.00011924,0.00010396,0.
 00025769,-0.00017791,-0.00007121,-0.00029390,0.00013561,0.00028202,0.0
 0044342,0.00017864,0.00015665,-0.00055778,-0.00005659,0.00014207,-0.00
 011636,0.00020931,0.00063471,-0.00081336,0.00080091,-0.00002413,0.0001
 1112,0.00012167,0.00016647,-0.00017877,0.00019317,-0.00023329,0.000279
 15,0.00001129,0.00000221,-0.00004719,-0.00001122,0.00007975,0.00006205
 ,-0.00001498,0.00003013,-0.00005463,-0.00003467,0.00006061,-0.00010701
 ,-0.00002843,-0.00000037,-0.00002203,0.00011324,0.00000131,0.00069692,
 0.00101618,0.00011534,-0.00092620,-0.00089380,0.00009791,-0.00013602,0
 .00008343,-0.00004305,0.00037023,-0.00030881,-0.02158675,0.58634013,-0
 .00179181,0.00033865,-0.00098997,0.00206128,-0.00768510,0.00304590,-0.
 01563366,0.00376881,-0.03782414,-0.02019709,-0.04941359,-0.18838372,0.
 00053294,0.00008305,0.00099084,-0.00149070,0.00030481,0.00027024,0.001
 05453,-0.00029121,-0.00003265,0.00047649,0.00002058,-0.00019366,0.0000
 3727,-0.00046964,0.00056554,-0.00011173,0.00003104,0.00093211,0.000861
 69,-0.00040785,-0.00092834,0.00033643,-0.00040985,0.00049797,0.0033064
 2,-0.00128544,0.00530468,-0.00014616,-0.00057397,-0.00010957,0.0002549
 8,-0.00008893,0.00029291,-0.00054308,0.00046807,0.00022396,0.00001875,
 -0.00004514,0.00020987,0.00017578,0.00009679,-0.00023861,0.00027752,-0
 .00006581,-0.00014338,-0.00000337,-0.00010631,-0.00000654,-0.00000161,
 -0.00013412,0.00047407,0.00022677,-0.00001957,0.00170677,0.00102324,-0
 .00081743,-0.00344607,0.00023144,-0.00038342,-0.00021655,0.00011792,0.
 00073565,-0.00061939,0.00296609,-0.05665963,0.47554094,0.00001661,0.00
 000916,0.00001724,0.00019944,0.00011617,0.00010136,0.00092007,-0.00105
 671,0.00022959,-0.00056434,-0.00054708,-0.00213168,0.00005834,0.000246
 73,-0.00015772,0.00005416,-0.00007210,-0.00000443,-0.00004736,-0.00000
 414,-0.00002962,0.00000495,-0.00001837,0.00003569,0.00000397,0.0000159
 7,-0.00002666,-0.00003650,-0.00005797,0.00003656,-0.00002108,0.0000502
 1,-0.00008122,-0.00000528,0.00000407,-0.00001029,0.00046540,-0.0000252
 5,0.00010299,-0.00000578,0.00001575,0.00000410,-0.00001579,0.00001271,
 -0.00001849,0.00001849,0.00000457,0.00003018,-0.00000022,0.00000604,0.
 00000297,-0.00000410,-0.00000380,0.00000987,0.00000250,0.00000691,-0.0
 0001052,-0.00000114,-0.00000983,0.00000612,0.00003083,-0.00000407,0.00
 001698,0.00002986,-0.00006558,-0.00014486,-0.00000994,0.00004914,0.000
 05460,0.00001180,0.00003135,-0.00002117,0.00000313,-0.00002625,0.00001
 698,-0.20991185,0.10668897,-0.09169322,0.21873205,-0.00005930,0.000275
 32,-0.00009739,0.00016136,0.00070306,0.00044569,-0.00051644,-0.0020538
 9,-0.00293077,-0.01517828,0.00846997,-0.01187056,-0.00059010,0.0004083
 3,-0.00049133,0.00012284,-0.00023898,-0.00015575,-0.00003559,0.0000374
 1,0.00002993,0.00007094,-0.00007665,0.00004148,-0.00002657,0.00002371,
 0.00003341,-0.00004434,-0.00007579,-0.00004738,0.00002780,0.00006959,0
 .00003320,-0.00001667,0.00000722,-0.00001945,0.00001991,-0.00005089,0.
 00003026,-0.00001628,0.00002051,0.00001887,-0.00005638,0.00004565,-0.0
 0006150,0.00001468,-0.00005117,-0.00002174,-0.00000081,0.00002096,0.00
 002669,0.00001040,0.00000095,-0.00001269,0.00001556,0.00001148,0.00001
 769,-0.00002379,0.00004887,0.00000510,-0.00002216,0.00000384,-0.000011
 89,0.00000638,-0.00002493,0.00009025,0.00007984,0.00011739,-0.00004777
 ,0.00000768,0.00001564,-0.00001890,0.00003158,-0.00001596,0.00001604,0
 .11264164,-0.12630452,0.06671862,-0.11528840,0.12762955,0.00018035,0.0
 0001549,0.00014602,-0.00027998,0.00049009,0.00000250,0.00181020,-0.003
 43892,-0.00419448,-0.02918943,0.01270349,-0.02607137,-0.00140459,0.000
 80544,-0.00064237,0.00035375,-0.00041517,-0.00034786,-0.00011412,0.000
 04974,0.00007484,-0.00007772,-0.00007663,0.00007414,0.00005955,0.00003
 111,-0.00002932,0.00002150,-0.00000112,-0.00010812,-0.00005436,0.00003
 466,0.00013301,-0.00003624,0.00004679,-0.00004191,-0.00021530,-0.00006
 708,-0.00000611,0.00001474,-0.00000720,-0.00001342,-0.00012677,0.00008
 513,-0.00011844,0.00005332,-0.00007446,-0.00004439,0.00000644,0.000013
 48,-0.00001668,-0.00001648,-0.00000992,0.00001143,-0.00002104,0.000005
 05,0.00001960,-0.00000247,0.00002601,-0.00000008,-0.00001849,0.0000166
 9,-0.00005203,0.00005971,-0.00002019,0.00012512,-0.00017862,0.00010069
 ,-0.00020001,-0.00001276,0.00002830,-0.00000474,-0.00003344,0.00000034
 ,0.00002286,-0.08139769,0.05739333,-0.09540138,0.10037990,-0.06135690,
 0.11630088,-0.00012393,0.00016648,-0.00006309,-0.00040340,-0.00005837,
 0.00035880,0.00353916,0.00012737,-0.00144444,0.00762495,0.00251871,-0.
 00260995,0.00040084,-0.00007693,0.00009019,-0.00012416,0.00003734,0.00
 002811,0.00007764,-0.00000899,-0.00001312,0.00002433,-0.00000808,0.000
 00126,0.00002993,-0.00001251,0.00002305,-0.00003434,0.00000477,0.00006
 841,0.00006447,-0.00000795,-0.00010386,0.00000384,-0.00001226,0.000007
 35,0.00036941,-0.00034319,0.00155000,-0.00000658,-0.00001640,0.0000119
 1,0.00002179,-0.00001230,0.00002050,-0.00004516,0.00003370,0.00002098,
 0.00000310,-0.00000255,0.00001675,-0.00000354,0.00000375,-0.00001934,0
 .00000787,-0.00000770,-0.00001368,-0.00000307,-0.00001872,0.00000141,0
 .00000734,-0.00001220,0.00003448,0.00004963,-0.00013898,-0.00025481,-0
 .00011785,-0.00006311,-0.00021320,0.00001598,-0.00002377,-0.00009467,-
 0.00000222,0.00001859,-0.00004448,-0.24938757,-0.03408098,0.11133958,-
 0.01778596,-0.00531889,0.01151560,0.26017989,-0.00002674,0.00007541,0.
 00005425,0.00008859,0.00000473,-0.00009068,0.00094791,-0.00017089,0.00
 149209,0.01348771,0.00149601,-0.01528644,0.00025597,0.00000825,0.00012
 509,0.00001011,-0.00002592,0.00004317,-0.00002973,-0.00004051,-0.00004
 027,-0.00000071,-0.00000572,0.00005622,0.00003093,0.00003378,-0.000061
 03,-0.00004533,-0.00004081,0.00011300,-0.00004464,0.00003103,-0.000189
 68,-0.00001613,0.00000827,-0.00002686,-0.00022837,0.00021566,0.0002726
 2,-0.00000303,-0.00001573,-0.00004247,-0.00000011,0.00000438,-0.000003
 51,0.00001123,0.00006646,0.00005573,0.00000137,0.00000276,0.00000566,-
 0.00002569,-0.00000698,0.00000924,-0.00000508,-0.00000129,-0.00002878,
 -0.00000232,-0.00005190,0.00002060,0.00006881,0.00000786,0.00005429,-0
 .00007901,-0.00013564,-0.00046325,-0.00020918,0.00015729,0.00049667,-0
 .00004128,0.00005213,-0.00004847,-0.00003308,-0.00007713,0.00002520,-0
 .03812432,-0.05966460,0.02239956,0.01407049,0.00358937,-0.00864359,0.0
 3722282,0.05581692,0.00010532,0.00011541,-0.00001113,-0.00088946,0.000
 71274,-0.00022387,0.00686431,-0.00167601,0.00283395,0.02294855,-0.0042
 7333,-0.03594274,0.00007851,-0.00024963,0.00000673,0.00018807,-0.00007
 963,-0.00001602,-0.00017092,0.00005047,0.00010569,0.00002732,-0.000009
 56,-0.00004218,-0.00008320,0.00009885,-0.00002951,0.00005941,0.0000878
 6,-0.00014862,-0.00003594,-0.00002708,0.00018535,-0.00002902,0.0000284
 9,-0.00003311,-0.00126344,0.00042972,0.00030371,0.00000444,0.00001458,
 -0.00003968,-0.00001625,0.00002786,0.00000884,0.00001169,-0.00005865,-
 0.00010452,-0.00000931,0.00000978,-0.00000923,-0.00002248,-0.00000445,
 0.00000664,-0.00002689,-0.00000597,0.00003281,-0.00001229,0.00003087,-
 0.00000070,-0.00003886,0.00001966,-0.00005186,-0.00028710,-0.00012195,
 -0.00068230,-0.00049293,0.00040549,0.00111841,-0.00015612,0.00008596,-
 0.00008879,-0.00000979,-0.00019450,0.00008390,0.10421413,0.02124781,-0
 .10961238,-0.01141773,-0.00289698,0.00973135,-0.12222123,-0.01532326,0
 .13147693,-0.00020846,0.00026318,-0.00012004,0.00016495,0.00073242,0.0
 0046080,0.00051508,-0.00259309,0.00049212,0.00135344,-0.00219342,-0.00
 387020,-0.00001310,0.00012249,-0.00018584,0.00002274,-0.00008074,-0.00
 001807,-0.00002458,0.00007844,0.00002084,0.00012868,-0.00009457,-0.000
 04415,-0.00010277,0.00005117,0.00007267,-0.00010066,-0.00013585,-0.000
 12407,0.00010574,0.00012595,0.00007310,0.00002299,-0.00002875,0.000014
 06,-0.00017984,-0.00014845,0.00009742,-0.00001624,0.00005943,0.0000577
 2,-0.00001215,0.00002123,-0.00000717,0.00000250,-0.00010366,-0.0000455
 6,-0.00000528,0.00003024,0.00003561,0.00002418,0.00000439,-0.00002532,
 0.00003065,0.00003106,0.00004562,-0.00005261,0.00011785,-0.00000530,-0
 .00006031,-0.00001518,-0.00001629,-0.00006025,0.00002081,0.00004246,0.
 00004637,0.00009886,0.00013186,-0.00000849,-0.00000129,-0.00000459,0.0
 0005911,-0.00005071,0.00003583,-0.06817400,-0.05698322,0.00631333,0.00
 785772,0.02398338,-0.00127558,-0.00438238,-0.02728120,0.00268119,0.063
 06697,-0.00007239,0.00051162,-0.00010042,0.00021519,0.00127353,0.00096
 700,0.00229629,-0.00232457,0.00154085,-0.00379954,-0.01014762,-0.01141
 871,-0.00017949,0.00013590,-0.00017945,0.00019392,-0.00013688,-0.00007
 409,-0.00009395,0.00006021,0.00000833,0.00003197,-0.00008359,0.0000858
 8,0.00001157,0.00007041,-0.00003674,-0.00001699,-0.00000513,-0.0000561
 4,-0.00003821,0.00005599,0.00005250,-0.00005641,0.00002201,-0.00003230
 ,-0.00015374,0.00011260,-0.00009212,0.00002992,0.00009530,0.00003245,-
 0.00004292,0.00002906,-0.00003719,0.00003509,-0.00006307,-0.00001898,0
 .00000359,0.00002524,0.00002746,-0.00002154,-0.00000566,0.00000491,-0.
 00001574,-0.00000305,0.00000802,0.00001728,0.00001333,-0.00000427,-0.0
 0000357,0.00000271,-0.00002615,-0.00004146,0.00004863,-0.00014770,-0.0
 0022494,-0.00005720,0.00035713,-0.00002024,0.00001994,0.00002038,-0.00
 002599,-0.00012912,0.00003319,-0.05793859,-0.30694225,0.02389136,-0.00
 414868,-0.01260603,0.00226535,0.00009032,-0.00133318,0.00155543,0.0639
 6924,0.33136088,0.00008956,0.00030501,-0.00006134,0.00033875,0.0012878
 5,-0.00069915,0.00201886,-0.00429305,0.00344940,-0.01051753,-0.0405638
 9,-0.01379664,-0.00036170,0.00047500,-0.00045458,0.00027727,-0.0001992
 8,-0.00012687,-0.00008759,0.00006345,0.00002884,0.00004159,-0.00009855
 ,0.00002401,-0.00001345,0.00011214,0.00001085,-0.00003617,-0.00007354,
 0.00007402,0.00001187,0.00007966,0.00000246,-0.00005214,0.00004399,-0.
 00006189,-0.00024648,0.00023687,-0.00047751,0.00004121,0.00019734,0.00
 013359,-0.00007400,0.00004778,-0.00006737,0.00003297,-0.00007413,-0.00
 002874,0.00000950,0.00006308,0.00002212,-0.00002539,-0.00000265,-0.000
 02511,0.00003218,-0.00000213,-0.00000681,-0.00002926,0.00003041,0.0000
 1670,-0.00000405,0.00002426,-0.00000688,-0.00010525,0.00018118,-0.0001
 3854,-0.00028831,-0.00016305,0.00054596,-0.00001843,0.00003294,0.00002
 990,-0.00003353,-0.00017895,0.00000164,0.00712199,0.03353552,-0.051909
 45,0.00470248,0.01253378,0.00065098,0.00200749,0.01502492,0.00114229,-
 0.00483246,-0.01862597,0.06172814\\0.00000211,-0.00000083,-0.00000294,
 0.00000011,0.00000051,-0.00000083,0.00000124,-0.00000136,0.00000233,-0
 .00000536,0.00000137,0.00000052,-0.00000327,-0.00000054,0.00000287,0.0
 0000192,-0.00000056,0.00000044,-0.00000069,0.00000172,0.00000105,0.000
 00098,-0.00000123,-0.00000010,0.00000458,-0.00000557,-0.00000088,0.000
 00405,0.00000307,-0.00000489,-0.00000002,0.00000407,-0.00000350,0.0000
 0441,-0.00000129,-0.00000340,-0.00000310,0.00000330,0.00000037,-0.0000
 0329,-0.00000052,0.00000368,-0.00000002,-0.00000323,0.00000140,-0.0000
 0030,0.00000254,-0.00000224,0.00000388,-0.00000244,-0.00000329,0.00000
 460,-0.00000596,-0.00000102,0.00000423,0.00000244,-0.00000630,0.000002
 80,0.00000367,-0.00000541,0.00000105,0.00000637,-0.00000524,-0.0000011
 5,-0.00000322,0.00000444,-0.00000231,-0.00000352,0.00000468,-0.0000021
 0,-0.00000520,0.00000532,0.00000030,-0.00000604,0.00000287,-0.00000341
 ,0.00000377,0.00000410,-0.00000491,0.00000204,0.00000387,-0.00000440,0
 .00000469,0.00000149,-0.00000192,0.00000196,0.00000060\\\@


 A DANDELION FROM A LOVER MEANS MORE THAN AN ORCHID FROM A FRIEND.
 Job cpu time:       2 days  7 hours 33 minutes 25.6 seconds.
 File lengths (MBytes):  RWF=    887 Int=      0 D2E=      0 Chk=     34 Scr=      1
 Normal termination of Gaussian 09 at Sun Nov 30 06:30:46 2014.
