 Entering Gaussian System, Link 0=/opt/software/SGI/GAUSSIAN/gaussian09/g09_D01/g09
 Initial command:
 /opt/software/SGI/GAUSSIAN/gaussian09/g09_D01/l1.exe "/scratch/sim7025/lbarnes/g5_GlcMethylBeta.dir09/Gau-31083.inp" -scrdir="/scratch/sim7025/lbarnes/g5_GlcMethylBeta.dir09/"
 Default is to use a total of   8 processors:
                                8 via shared-memory
                                1 via Linda
 Entering Link 1 = /opt/software/SGI/GAUSSIAN/gaussian09/g09_D01/l1.exe PID=     31092.
  
 Copyright (c) 1988,1990,1992,1993,1995,1998,2003,2009,2013,
            Gaussian, Inc.  All Rights Reserved.
  
 This is part of the Gaussian(R) 09 program.  It is based on
 the Gaussian(R) 03 system (copyright 2003, Gaussian, Inc.),
 the Gaussian(R) 98 system (copyright 1998, Gaussian, Inc.),
 the Gaussian(R) 94 system (copyright 1995, Gaussian, Inc.),
 the Gaussian 92(TM) system (copyright 1992, Gaussian, Inc.),
 the Gaussian 90(TM) system (copyright 1990, Gaussian, Inc.),
 the Gaussian 88(TM) system (copyright 1988, Gaussian, Inc.),
 the Gaussian 86(TM) system (copyright 1986, Carnegie Mellon
 University), and the Gaussian 82(TM) system (copyright 1983,
 Carnegie Mellon University). Gaussian is a federally registered
 trademark of Gaussian, Inc.
  
 This software contains proprietary and confidential information,
 including trade secrets, belonging to Gaussian, Inc.
  
 This software is provided under written license and may be
 used, copied, transmitted, or stored only in accord with that
 written license.
  
 The following legend is applicable only to US Government
 contracts under FAR:
  
                    RESTRICTED RIGHTS LEGEND
  
 Use, reproduction and disclosure by the US Government is
 subject to restrictions as set forth in subparagraphs (a)
 and (c) of the Commercial Computer Software - Restricted
 Rights clause in FAR 52.227-19.
  
 Gaussian, Inc.
 340 Quinnipiac St., Bldg. 40, Wallingford CT 06492
  
  
 ---------------------------------------------------------------
 Warning -- This program may not be used in any manner that
 competes with the business of Gaussian, Inc. or will provide
 assistance to any competitor of Gaussian, Inc.  The licensee
 of this program is prohibited from giving any competitor of
 Gaussian, Inc. access to this program.  By using this program,
 the user acknowledges that Gaussian, Inc. is engaged in the
 business of creating and licensing software in the field of
 computational chemistry and represents and warrants to the
 licensee that it is not a competitor of Gaussian, Inc. and that
 it will not use this program in any manner prohibited above.
 ---------------------------------------------------------------
  

 Cite this work as:
 Gaussian 09, Revision D.01,
 M. J. Frisch, G. W. Trucks, H. B. Schlegel, G. E. Scuseria, 
 M. A. Robb, J. R. Cheeseman, G. Scalmani, V. Barone, B. Mennucci, 
 G. A. Petersson, H. Nakatsuji, M. Caricato, X. Li, H. P. Hratchian, 
 A. F. Izmaylov, J. Bloino, G. Zheng, J. L. Sonnenberg, M. Hada, 
 M. Ehara, K. Toyota, R. Fukuda, J. Hasegawa, M. Ishida, T. Nakajima, 
 Y. Honda, O. Kitao, H. Nakai, T. Vreven, J. A. Montgomery, Jr., 
 J. E. Peralta, F. Ogliaro, M. Bearpark, J. J. Heyd, E. Brothers, 
 K. N. Kudin, V. N. Staroverov, T. Keith, R. Kobayashi, J. Normand, 
 K. Raghavachari, A. Rendell, J. C. Burant, S. S. Iyengar, J. Tomasi, 
 M. Cossi, N. Rega, J. M. Millam, M. Klene, J. E. Knox, J. B. Cross, 
 V. Bakken, C. Adamo, J. Jaramillo, R. Gomperts, R. E. Stratmann, 
 O. Yazyev, A. J. Austin, R. Cammi, C. Pomelli, J. W. Ochterski, 
 R. L. Martin, K. Morokuma, V. G. Zakrzewski, G. A. Voth, 
 P. Salvador, J. J. Dannenberg, S. Dapprich, A. D. Daniels, 
 O. Farkas, J. B. Foresman, J. V. Ortiz, J. Cioslowski, 
 and D. J. Fox, Gaussian, Inc., Wallingford CT, 2013.
 
 ******************************************
 Gaussian 09:  ES64L-G09RevD.01 24-Apr-2013
                 3-Dec-2014 
 ******************************************
 %Mem=10GB
 %Chk=g5_GlcMethylBeta
 Default route:  MaxDisk=100GB
 ----------------------------------------------------------------------
 # CAM-B3LYP/6-311++G(2df,2pd) # scf=(XQC,tight) Opt(Tight) # Test # Un
 its(Ang,Deg)
 ----------------------------------------------------------------------
 1/7=10,14=-1,18=20,19=15,26=3,38=1/1,3;
 2/9=110,12=2,17=6,18=5,40=1/2;
 3/5=4,6=6,7=1414,11=2,16=1,25=1,30=1,71=1,74=-40/1,2,3;
 4//1;
 5/5=2,8=3,13=1,32=2,38=5/2,8;
 6/7=2,8=2,9=2,10=2,28=1/1;
 7//1,2,3,16;
 1/7=10,14=-1,18=20,19=15,26=3/3(2);
 2/9=110/2;
 99//99;
 2/9=110/2;
 3/5=4,6=6,7=1414,11=2,16=1,25=1,30=1,71=1,74=-40/1,2,3;
 4/5=5,16=3,69=1/1;
 5/5=2,8=3,13=1,32=2,38=5/2,8;
 7//1,2,3,16;
 1/7=10,14=-1,18=20,19=15,26=3/3(-5);
 2/9=110/2;
 6/7=2,8=2,9=2,10=2,19=2,28=1/1;
 99/9=1/99;
 -------------------------------------------------------------
 Input file generated by NewSaccharides.cpp E = -707.201011681
 -------------------------------------------------------------
 Symbolic Z-matrix:
 Charge =  1 Multiplicity = 1
 6                    0    -1.39781  -0.15697   0.48645 
 8                    0    -0.22785  -0.94258   0.80428 
 6                    0     1.00256  -0.70006   0.13811 
 8                    0     1.04875  -1.07486  -1.18843 
 6                    0     1.37794   0.79257   0.16296 
 6                    0     0.21985   1.71858  -0.29878 
 8                    0     0.09686   1.72842  -1.68381 
 6                    0    -1.07543   1.35001   0.46427 
 8                    0    -0.82302   1.80737   1.81803 
 6                    0    -2.23089  -0.68272  -0.68245 
 8                    0    -1.65159  -0.36581  -1.94596 
 1                    0    -2.03596  -0.32961   1.35929 
 1                    0     1.71602  -1.29327   0.73293 
 1                    0     2.25554   0.95661  -0.46059 
 1                    0     0.46554   2.7457   -0.00793 
 1                    0    -0.35954   0.92145  -1.98825 
 1                    0    -1.90455   1.91356   0.02974 
 1                    0    -1.63332   1.81635   2.34035 
 1                    0    -3.22745  -0.23243  -0.59471 
 1                    0    -2.33407  -1.76622  -0.5626 
 1                    0    -2.26817  -0.57419  -2.65608 
 7                    0     1.74615   1.16658   1.59512 
 1                    0     2.33743   0.46006   2.03923 
 1                    0     0.86055   1.28395   2.13275 
 1                    0     2.24263   2.06012   1.62149 
 6                    0     0.98299  -2.48892  -1.42842 
 1                    0     1.80186  -3.00039  -0.91109 
 1                    0     1.0931   -2.61727  -2.50247 
 1                    0     0.02695  -2.90156  -1.10113 
 

 GradGradGradGradGradGradGradGradGradGradGradGradGradGradGradGradGradGrad
 Berny optimization.
 Initialization pass.
                           ----------------------------
                           !    Initial Parameters    !
                           ! (Angstroms and Degrees)  !
 --------------------------                            --------------------------
 ! Name  Definition              Value          Derivative Info.                !
 --------------------------------------------------------------------------------
 ! R1    R(1,2)                  1.4446         estimate D2E/DX2                !
 ! R2    R(1,8)                  1.5412         estimate D2E/DX2                !
 ! R3    R(1,10)                 1.5287         estimate D2E/DX2                !
 ! R4    R(1,12)                 1.0949         estimate D2E/DX2                !
 ! R5    R(2,3)                  1.42           estimate D2E/DX2                !
 ! R6    R(3,4)                  1.3792         estimate D2E/DX2                !
 ! R7    R(3,5)                  1.5393         estimate D2E/DX2                !
 ! R8    R(3,13)                 1.1022         estimate D2E/DX2                !
 ! R9    R(4,26)                 1.4358         estimate D2E/DX2                !
 ! R10   R(5,6)                  1.553          estimate D2E/DX2                !
 ! R11   R(5,14)                 1.089          estimate D2E/DX2                !
 ! R12   R(5,22)                 1.5253         estimate D2E/DX2                !
 ! R13   R(6,7)                  1.3905         estimate D2E/DX2                !
 ! R14   R(6,8)                  1.5478         estimate D2E/DX2                !
 ! R15   R(6,15)                 1.0954         estimate D2E/DX2                !
 ! R16   R(7,16)                 0.9758         estimate D2E/DX2                !
 ! R17   R(8,9)                  1.4511         estimate D2E/DX2                !
 ! R18   R(8,17)                 1.0926         estimate D2E/DX2                !
 ! R19   R(9,18)                 0.9641         estimate D2E/DX2                !
 ! R20   R(10,11)                1.4256         estimate D2E/DX2                !
 ! R21   R(10,19)                1.0971         estimate D2E/DX2                !
 ! R22   R(10,20)                1.095          estimate D2E/DX2                !
 ! R23   R(11,21)                0.9633         estimate D2E/DX2                !
 ! R24   R(22,23)                1.0227         estimate D2E/DX2                !
 ! R25   R(22,24)                1.0426         estimate D2E/DX2                !
 ! R26   R(22,25)                1.0225         estimate D2E/DX2                !
 ! R27   R(26,27)                1.0953         estimate D2E/DX2                !
 ! R28   R(26,28)                1.0873         estimate D2E/DX2                !
 ! R29   R(26,29)                1.0915         estimate D2E/DX2                !
 ! A1    A(2,1,8)              111.4375         estimate D2E/DX2                !
 ! A2    A(2,1,10)             114.9957         estimate D2E/DX2                !
 ! A3    A(2,1,12)             102.1746         estimate D2E/DX2                !
 ! A4    A(8,1,10)             116.0575         estimate D2E/DX2                !
 ! A5    A(8,1,12)             106.7109         estimate D2E/DX2                !
 ! A6    A(10,1,12)            103.7514         estimate D2E/DX2                !
 ! A7    A(1,2,3)              120.3737         estimate D2E/DX2                !
 ! A8    A(2,3,4)              115.7094         estimate D2E/DX2                !
 ! A9    A(2,3,5)              111.6743         estimate D2E/DX2                !
 ! A10   A(2,3,13)             102.4622         estimate D2E/DX2                !
 ! A11   A(4,3,5)              105.7154         estimate D2E/DX2                !
 ! A12   A(4,3,13)             110.5561         estimate D2E/DX2                !
 ! A13   A(5,3,13)             110.8138         estimate D2E/DX2                !
 ! A14   A(3,4,26)             115.2682         estimate D2E/DX2                !
 ! A15   A(3,5,6)              113.0496         estimate D2E/DX2                !
 ! A16   A(3,5,14)             109.472          estimate D2E/DX2                !
 ! A17   A(3,5,22)             108.1671         estimate D2E/DX2                !
 ! A18   A(6,5,14)             109.9316         estimate D2E/DX2                !
 ! A19   A(6,5,22)             108.2383         estimate D2E/DX2                !
 ! A20   A(14,5,22)            107.8275         estimate D2E/DX2                !
 ! A21   A(5,6,7)              111.4886         estimate D2E/DX2                !
 ! A22   A(5,6,8)              109.6015         estimate D2E/DX2                !
 ! A23   A(5,6,15)             108.2333         estimate D2E/DX2                !
 ! A24   A(7,6,8)              114.7528         estimate D2E/DX2                !
 ! A25   A(7,6,15)             106.1213         estimate D2E/DX2                !
 ! A26   A(8,6,15)             106.2644         estimate D2E/DX2                !
 ! A27   A(6,7,16)             110.2594         estimate D2E/DX2                !
 ! A28   A(1,8,6)              114.5166         estimate D2E/DX2                !
 ! A29   A(1,8,9)              109.3381         estimate D2E/DX2                !
 ! A30   A(1,8,17)             110.5676         estimate D2E/DX2                !
 ! A31   A(6,8,9)              103.8455         estimate D2E/DX2                !
 ! A32   A(6,8,17)             108.4295         estimate D2E/DX2                !
 ! A33   A(9,8,17)             109.9046         estimate D2E/DX2                !
 ! A34   A(8,9,18)             111.234          estimate D2E/DX2                !
 ! A35   A(1,10,11)            112.3212         estimate D2E/DX2                !
 ! A36   A(1,10,19)            107.0211         estimate D2E/DX2                !
 ! A37   A(1,10,20)            107.9375         estimate D2E/DX2                !
 ! A38   A(11,10,19)           110.411          estimate D2E/DX2                !
 ! A39   A(11,10,20)           110.8097         estimate D2E/DX2                !
 ! A40   A(19,10,20)           108.1667         estimate D2E/DX2                !
 ! A41   A(10,11,21)           110.1927         estimate D2E/DX2                !
 ! A42   A(5,22,23)            112.2031         estimate D2E/DX2                !
 ! A43   A(5,22,24)            107.8619         estimate D2E/DX2                !
 ! A44   A(5,22,25)            110.8356         estimate D2E/DX2                !
 ! A45   A(23,22,24)           110.1759         estimate D2E/DX2                !
 ! A46   A(23,22,25)           108.1648         estimate D2E/DX2                !
 ! A47   A(24,22,25)           107.5015         estimate D2E/DX2                !
 ! A48   A(4,26,27)            110.2852         estimate D2E/DX2                !
 ! A49   A(4,26,28)            106.0653         estimate D2E/DX2                !
 ! A50   A(4,26,29)            111.2432         estimate D2E/DX2                !
 ! A51   A(27,26,28)           109.6162         estimate D2E/DX2                !
 ! A52   A(27,26,29)           109.6738         estimate D2E/DX2                !
 ! A53   A(28,26,29)           109.8935         estimate D2E/DX2                !
 ! D1    D(8,1,2,3)            -47.7665         estimate D2E/DX2                !
 ! D2    D(10,1,2,3)            86.9622         estimate D2E/DX2                !
 ! D3    D(12,1,2,3)          -161.3905         estimate D2E/DX2                !
 ! D4    D(2,1,8,6)             45.7051         estimate D2E/DX2                !
 ! D5    D(2,1,8,9)            -70.3223         estimate D2E/DX2                !
 ! D6    D(2,1,8,17)           168.5424         estimate D2E/DX2                !
 ! D7    D(10,1,8,6)           -88.507          estimate D2E/DX2                !
 ! D8    D(10,1,8,9)           155.4655         estimate D2E/DX2                !
 ! D9    D(10,1,8,17)           34.3302         estimate D2E/DX2                !
 ! D10   D(12,1,8,6)           156.4642         estimate D2E/DX2                !
 ! D11   D(12,1,8,9)            40.4367         estimate D2E/DX2                !
 ! D12   D(12,1,8,17)          -80.6986         estimate D2E/DX2                !
 ! D13   D(2,1,10,11)          -78.0431         estimate D2E/DX2                !
 ! D14   D(2,1,10,19)          160.6276         estimate D2E/DX2                !
 ! D15   D(2,1,10,20)           44.4072         estimate D2E/DX2                !
 ! D16   D(8,1,10,11)           54.555          estimate D2E/DX2                !
 ! D17   D(8,1,10,19)          -66.7744         estimate D2E/DX2                !
 ! D18   D(8,1,10,20)          177.0053         estimate D2E/DX2                !
 ! D19   D(12,1,10,11)         171.2465         estimate D2E/DX2                !
 ! D20   D(12,1,10,19)          49.9171         estimate D2E/DX2                !
 ! D21   D(12,1,10,20)         -66.3032         estimate D2E/DX2                !
 ! D22   D(1,2,3,4)            -70.7687         estimate D2E/DX2                !
 ! D23   D(1,2,3,5)             50.218          estimate D2E/DX2                !
 ! D24   D(1,2,3,13)           168.8659         estimate D2E/DX2                !
 ! D25   D(2,3,4,26)           -67.2838         estimate D2E/DX2                !
 ! D26   D(5,3,4,26)           168.5704         estimate D2E/DX2                !
 ! D27   D(13,3,4,26)           48.5871         estimate D2E/DX2                !
 ! D28   D(2,3,5,6)            -50.0202         estimate D2E/DX2                !
 ! D29   D(2,3,5,14)          -172.935          estimate D2E/DX2                !
 ! D30   D(2,3,5,22)            69.8207         estimate D2E/DX2                !
 ! D31   D(4,3,5,6)             76.6184         estimate D2E/DX2                !
 ! D32   D(4,3,5,14)           -46.2964         estimate D2E/DX2                !
 ! D33   D(4,3,5,22)          -163.5406         estimate D2E/DX2                !
 ! D34   D(13,3,5,6)          -163.5674         estimate D2E/DX2                !
 ! D35   D(13,3,5,14)           73.5178         estimate D2E/DX2                !
 ! D36   D(13,3,5,22)          -43.7265         estimate D2E/DX2                !
 ! D37   D(3,4,26,27)          -57.9354         estimate D2E/DX2                !
 ! D38   D(3,4,26,28)         -176.5492         estimate D2E/DX2                !
 ! D39   D(3,4,26,29)           63.9875         estimate D2E/DX2                !
 ! D40   D(3,5,6,7)            -78.2603         estimate D2E/DX2                !
 ! D41   D(3,5,6,8)             49.8996         estimate D2E/DX2                !
 ! D42   D(3,5,6,15)           165.3881         estimate D2E/DX2                !
 ! D43   D(14,5,6,7)            44.3991         estimate D2E/DX2                !
 ! D44   D(14,5,6,8)           172.5589         estimate D2E/DX2                !
 ! D45   D(14,5,6,15)          -71.9526         estimate D2E/DX2                !
 ! D46   D(22,5,6,7)           161.9397         estimate D2E/DX2                !
 ! D47   D(22,5,6,8)           -69.9004         estimate D2E/DX2                !
 ! D48   D(22,5,6,15)           45.5881         estimate D2E/DX2                !
 ! D49   D(3,5,22,23)           43.3509         estimate D2E/DX2                !
 ! D50   D(3,5,22,24)          -78.1776         estimate D2E/DX2                !
 ! D51   D(3,5,22,25)          164.3894         estimate D2E/DX2                !
 ! D52   D(6,5,22,23)          166.1707         estimate D2E/DX2                !
 ! D53   D(6,5,22,24)           44.6421         estimate D2E/DX2                !
 ! D54   D(6,5,22,25)          -72.7909         estimate D2E/DX2                !
 ! D55   D(14,5,22,23)         -74.9473         estimate D2E/DX2                !
 ! D56   D(14,5,22,24)         163.5241         estimate D2E/DX2                !
 ! D57   D(14,5,22,25)          46.0911         estimate D2E/DX2                !
 ! D58   D(5,6,7,16)            78.2073         estimate D2E/DX2                !
 ! D59   D(8,6,7,16)           -47.1396         estimate D2E/DX2                !
 ! D60   D(15,6,7,16)         -164.1593         estimate D2E/DX2                !
 ! D61   D(5,6,8,1)            -48.2698         estimate D2E/DX2                !
 ! D62   D(5,6,8,9)             70.8906         estimate D2E/DX2                !
 ! D63   D(5,6,8,17)          -172.2548         estimate D2E/DX2                !
 ! D64   D(7,6,8,1)             78.0565         estimate D2E/DX2                !
 ! D65   D(7,6,8,9)           -162.7832         estimate D2E/DX2                !
 ! D66   D(7,6,8,17)           -45.9285         estimate D2E/DX2                !
 ! D67   D(15,6,8,1)          -165.0055         estimate D2E/DX2                !
 ! D68   D(15,6,8,9)           -45.8452         estimate D2E/DX2                !
 ! D69   D(15,6,8,17)           71.0095         estimate D2E/DX2                !
 ! D70   D(1,8,9,18)           -70.4426         estimate D2E/DX2                !
 ! D71   D(6,8,9,18)           166.9131         estimate D2E/DX2                !
 ! D72   D(17,8,9,18)           51.0942         estimate D2E/DX2                !
 ! D73   D(1,10,11,21)        -170.3237         estimate D2E/DX2                !
 ! D74   D(19,10,11,21)        -50.9563         estimate D2E/DX2                !
 ! D75   D(20,10,11,21)         68.866          estimate D2E/DX2                !
 --------------------------------------------------------------------------------
 Trust Radius=3.00D-01 FncErr=1.00D-07 GrdErr=1.00D-06
 Number of steps in this run=    167 maximum allowed number of steps=    174.
 GradGradGradGradGradGradGradGradGradGradGradGradGradGradGradGradGradGrad

                          Input orientation:                          
 ---------------------------------------------------------------------
 Center     Atomic      Atomic             Coordinates (Angstroms)
 Number     Number       Type             X           Y           Z
 ---------------------------------------------------------------------
      1          6           0       -1.397810   -0.156973    0.486454
      2          8           0       -0.227849   -0.942576    0.804275
      3          6           0        1.002557   -0.700060    0.138109
      4          8           0        1.048754   -1.074857   -1.188426
      5          6           0        1.377941    0.792574    0.162957
      6          6           0        0.219846    1.718577   -0.298781
      7          8           0        0.096863    1.728415   -1.683813
      8          6           0       -1.075432    1.350009    0.464271
      9          8           0       -0.823023    1.807369    1.818034
     10          6           0       -2.230889   -0.682724   -0.682454
     11          8           0       -1.651590   -0.365812   -1.945955
     12          1           0       -2.035961   -0.329607    1.359289
     13          1           0        1.716024   -1.293272    0.732931
     14          1           0        2.255542    0.956609   -0.460588
     15          1           0        0.465540    2.745700   -0.007930
     16          1           0       -0.359535    0.921451   -1.988245
     17          1           0       -1.904545    1.913558    0.029743
     18          1           0       -1.633324    1.816352    2.340349
     19          1           0       -3.227452   -0.232434   -0.594714
     20          1           0       -2.334074   -1.766218   -0.562598
     21          1           0       -2.268173   -0.574194   -2.656084
     22          7           0        1.746145    1.166577    1.595118
     23          1           0        2.337425    0.460057    2.039229
     24          1           0        0.860553    1.283950    2.132750
     25          1           0        2.242627    2.060119    1.621491
     26          6           0        0.982985   -2.488922   -1.428417
     27          1           0        1.801859   -3.000390   -0.911092
     28          1           0        1.093095   -2.617268   -2.502469
     29          1           0        0.026947   -2.901562   -1.101133
 ---------------------------------------------------------------------
                    Distance matrix (angstroms):
                    1          2          3          4          5
     1  C    0.000000
     2  O    1.444642   0.000000
     3  C    2.485568   1.420032   0.000000
     4  O    3.103773   2.370247   1.379240   0.000000
     5  C    2.951454   2.449611   1.539314   2.328497   0.000000
     6  C    2.598287   2.915287   2.579402   3.046610   1.553019
     7  O    3.240184   3.664725   3.168150   3.001639   2.434650
     8  C    1.541238   2.467782   2.937210   3.622644   2.533883
     9  O    2.441746   2.990675   3.527335   4.566134   2.934848
    10  C    1.528653   2.507998   3.335985   3.341532   3.989346
    11  O    2.454512   3.150152   3.391097   2.892828   3.868776
    12  H    1.094934   1.988225   3.295619   4.069609   3.787509
    13  H    3.323836   1.976542   1.102156   2.045621   2.188590
    14  H    3.934963   3.372538   2.161703   2.472436   1.088990
    15  H    3.484537   3.839771   3.490412   4.041085   2.162494
    16  H    2.892257   3.360075   3.000995   2.570649   2.768231
    17  H    2.180015   3.401281   3.910752   4.374533   3.471176
    18  H    2.717794   3.456381   4.257941   5.291964   3.854462
    19  H    2.126548   3.385128   4.318412   4.398648   4.778530
    20  H    2.137000   2.642520   3.572225   3.509012   4.566498
    21  H    3.287423   4.033945   4.303607   3.661514   4.807202
    22  N    3.586833   2.995098   2.481961   3.641222   1.525299
    23  H    4.091921   3.173818   2.596536   3.799262   2.133442
    24  H    3.144321   2.811918   2.816923   4.077941   2.095048
    25  H    4.410962   3.973320   3.369983   4.375962   2.116996
    26  C    3.843553   2.973587   2.377901   1.435793   3.668334
    27  H    4.502892   3.361071   2.651646   2.086087   3.964828
    28  H    4.603403   3.934977   3.264435   2.026748   4.337356
    29  H    3.476080   2.744654   2.708163   2.094889   4.131555
                    6          7          8          9         10
     6  C    0.000000
     7  O    1.390516   0.000000
     8  C    1.547849   2.476233   0.000000
     9  O    2.361433   3.621513   1.451056   0.000000
    10  C    3.452471   3.497819   2.604239   3.799354   0.000000
    11  O    3.249636   2.740729   3.014165   4.424574   1.425642
    12  H    3.468850   4.247924   2.131850   2.499666   2.081202
    13  H    3.517700   4.194392   3.853744   4.151889   4.237240
    14  H    2.179641   2.598434   3.479298   3.923452   4.781705
    15  H    1.095418   1.994837   2.132023   2.423841   4.413593
    16  H    1.955858   0.975791   2.590561   3.935407   2.789343
    17  H    2.158468   2.641247   1.092625   2.092594   2.711901
    18  H    3.226268   4.381228   2.012061   0.964096   3.967342
    19  H    3.972138   4.010254   2.873459   3.970318   1.097086
    20  H    4.328499   4.402163   3.514187   4.552055   1.094976
    21  H    4.123580   3.441034   3.855101   5.270487   1.976963
    22  N    2.494223   3.713109   3.045285   2.657241   4.942069
    23  H    3.396219   4.526576   3.862655   3.442762   5.439026
    24  H    2.551813   3.917515   2.556604   1.790933   4.620627
    25  H    2.809936   3.954664   3.585098   3.082324   5.730942
    26  C    4.422839   4.316986   4.749394   5.679721   3.761356
    27  H    5.014613   5.085834   5.394108   6.119860   4.656920
    28  H    4.941493   4.532950   5.407711   6.474231   4.254854
    29  H    4.693257   4.667022   4.662787   5.605178   3.193174
                   11         12         13         14         15
    11  O    0.000000
    12  H    3.327715   0.000000
    13  H    4.401981   3.924075   0.000000
    14  H    4.384152   4.835628   2.603369   0.000000
    15  H    4.233165   4.193365   4.292538   2.570963   0.000000
    16  H    1.824347   3.947345   4.076486   3.028795   2.816075
    17  H    3.027028   2.610891   4.887407   4.296801   2.512207
    18  H    4.809842   2.393687   4.844759   4.869054   3.283798
    19  H    2.080140   2.290681   5.227425   5.612044   4.780354
    20  H    2.083410   2.417927   4.278477   5.337487   5.338811
    21  H    0.963266   4.029512   5.279803   5.256192   5.050505
    22  N    5.141208   4.074127   2.606747   2.128262   2.589081
    23  H    5.698771   4.495819   2.273041   2.549971   3.594298
    24  H    5.066400   3.404644   3.055061   2.962862   2.622072
    25  H    5.811776   4.907734   3.508857   2.356471   2.506606
    26  C    3.422927   4.641980   2.576500   3.798392   5.448559
    27  H    4.465227   5.197747   2.371588   4.008319   5.968166
    28  H    3.593335   5.471523   3.550890   4.277050   5.947939
    29  H    3.156143   4.113905   2.967047   4.501379   5.768798
                   16         17         18         19         20
    16  H    0.000000
    17  H    2.728298   0.000000
    18  H    4.600012   2.328500   0.000000
    19  H    3.390918   2.597174   3.918337   0.000000
    20  H    3.626960   3.751815   4.664007   1.775288   0.000000
    21  H    2.515127   3.678968   5.575131   2.299187   2.409968
    22  N    4.163468   4.041772   3.521134   5.611529   5.468566
    23  H    4.868986   4.913757   4.206787   6.195567   5.792125
    24  H    4.313075   3.530554   2.558510   5.142982   5.174366
    25  H    4.593257   4.444567   3.949579   6.331598   6.352739
    26  C    3.707615   5.463139   6.291586   4.849183   3.503544
    27  H    4.605727   6.226515   6.750804   5.749404   4.330193
    28  H    3.859675   5.993857   7.109376   5.290944   4.029004
    29  H    3.943573   5.309889   6.071162   4.239318   2.674593
                   21         22         23         24         25
    21  H    0.000000
    22  N    6.100635   0.000000
    23  H    6.657865   1.022750   0.000000
    24  H    6.014529   1.042640   1.693723   0.000000
    25  H    6.751635   1.022549   1.656409   1.665519   0.000000
    26  C    3.967793   4.804878   4.749269   5.189553   5.619823
    27  H    5.049414   4.862901   4.578856   5.339157   5.676003
    28  H    3.936480   5.615530   5.625416   6.062906   6.340853
    29  H    3.619681   5.174473   5.147880   5.354569   6.077845
                   26         27         28         29
    26  C    0.000000
    27  H    1.095344   0.000000
    28  H    1.087283   1.783707   0.000000
    29  H    1.091511   1.787791   1.783602   0.000000
 Stoichiometry    C7H16NO5(1+)
 Framework group  C1[X(C7H16NO5)]
 Deg. of freedom    81
 Full point group                 C1      NOp   1
 Largest Abelian subgroup         C1      NOp   1
 Largest concise Abelian subgroup C1      NOp   1
                         Standard orientation:                         
 ---------------------------------------------------------------------
 Center     Atomic      Atomic             Coordinates (Angstroms)
 Number     Number       Type             X           Y           Z
 ---------------------------------------------------------------------
      1          6           0       -0.015948   -1.099711   -1.008182
      2          8           0       -0.251202    0.270842   -1.399629
      3          6           0       -0.327353    1.294776   -0.418686
      4          8           0       -1.452076    1.276322    0.379410
      5          6           0        0.870174    1.246853    0.547295
      6          6           0        1.121548   -0.168779    1.134378
      7          8           0        0.228245   -0.461247    2.159077
      8          6           0        1.155304   -1.207972   -0.012258
      9          8           0        2.400110   -0.923990   -0.701732
     10          6           0       -1.272603   -1.895676   -0.655991
     11          8           0       -1.761221   -1.587433    0.647349
     12          1           0        0.324696   -1.552264   -1.945219
     13          1           0       -0.301303    2.211784   -1.029560
     14          1           0        0.714343    1.961155    1.354382
     15          1           0        2.118672   -0.179696    1.587771
     16          1           0       -0.639014   -0.713280    1.789605
     17          1           0        1.193568   -2.207172    0.428156
     18          1           0        2.631482   -1.634128   -1.311365
     19          1           0       -1.009252   -2.958484   -0.724419
     20          1           0       -2.031095   -1.682262   -1.416331
     21          1           0       -2.455366   -2.206766    0.897289
     22          7           0        2.117418    1.673865   -0.219894
     23          1           0        1.944959    2.486629   -0.816290
     24          1           0        2.430596    0.864134   -0.797262
     25          1           0        2.878160    1.905770    0.422833
     26          6           0       -2.685802    1.571180   -0.293256
     27          1           0       -2.633112    2.556657   -0.768481
     28          1           0       -3.453969    1.577589    0.476199
     29          1           0       -2.918060    0.813302   -1.043637
 ---------------------------------------------------------------------
 Rotational constants (GHZ):      0.9945962      0.7862181      0.6456673
 Standard basis: 6-311++G(2df,2pd) (5D, 7F)
 There are   763 symmetry adapted cartesian basis functions of A   symmetry.
 There are   682 symmetry adapted basis functions of A   symmetry.
   682 basis functions,   964 primitive gaussians,   763 cartesian basis functions
    52 alpha electrons       52 beta electrons
       nuclear repulsion energy      1002.8373514919 Hartrees.
 NAtoms=   29 NActive=   29 NUniq=   29 SFac= 1.00D+00 NAtFMM=   60 NAOKFM=F Big=F
 Integral buffers will be    131072 words long.
 Raffenetti 2 integral format.
 Two-electron integral symmetry is turned on.
 One-electron integrals computed using PRISM.
 NBasis=   682 RedAO= T EigKep=  1.56D-06  NBF=   682
 NBsUse=   682 1.00D-06 EigRej= -1.00D+00 NBFU=   682
 ExpMin= 3.60D-02 ExpMax= 8.59D+03 ExpMxC= 1.30D+03 IAcc=3 IRadAn=         5 AccDes= 0.00D+00
 Harris functional with IExCor=20419 and IRadAn=       5 diagonalized for initial guess.
 HarFok:  IExCor=20419 AccDes= 0.00D+00 IRadAn=         5 IDoV= 1 UseB2=F ITyADJ=14
 ICtDFT=  3500011 ScaDFX=  1.000000  1.000000  1.000000  1.000000
 FoFCou: FMM=F IPFlag=           0 FMFlag=      100000 FMFlg1=           0
         NFxFlg=           0 DoJE=T BraDBF=F KetDBF=T FulRan=T
         wScrn=  0.000000 ICntrl=     500 IOpCl=  0 I1Cent=   200000004 NGrid=           0
         NMat0=    1 NMatS0=      1 NMatT0=    0 NMatD0=    1 NMtDS0=    0 NMtDT0=    0
 Petite list used in FoFCou.
 Requested convergence on RMS density matrix=1.00D-08 within  64 cycles.
 Requested convergence on MAX density matrix=1.00D-06.
 Requested convergence on             energy=1.00D-06.
 No special actions if energy rises.
 SCF Done:  E(RCAM-B3LYP) =  -706.951009284     A.U. after   14 cycles
            NFock= 14  Conv=0.13D-08     -V/T= 2.0038
 QCSCF skips out because SCF is already converged.

 **********************************************************************

            Population analysis using the SCF density.

 **********************************************************************

 Orbital symmetries:
       Occupied  (A) (A) (A) (A) (A) (A) (A) (A) (A) (A) (A) (A)
                 (A) (A) (A) (A) (A) (A) (A) (A) (A) (A) (A) (A)
                 (A) (A) (A) (A) (A) (A) (A) (A) (A) (A) (A) (A)
                 (A) (A) (A) (A) (A) (A) (A) (A) (A) (A) (A) (A)
                 (A) (A) (A) (A)
       Virtual   (A) (A) (A) (A) (A) (A) (A) (A) (A) (A) (A) (A)
                 (A) (A) (A) (A) (A) (A) (A) (A) (A) (A) (A) (A)
                 (A) (A) (A) (A) (A) (A) (A) (A) (A) (A) (A) (A)
                 (A) (A) (A) (A) (A) (A) (A) (A) (A) (A) (A) (A)
                 (A) (A) (A) (A) (A) (A) (A) (A) (A) (A) (A) (A)
                 (A) (A) (A) (A) (A) (A) (A) (A) (A) (A) (A) (A)
                 (A) (A) (A) (A) (A) (A) (A) (A) (A) (A) (A) (A)
                 (A) (A) (A) (A) (A) (A) (A) (A) (A) (A) (A) (A)
                 (A) (A) (A) (A) (A) (A) (A) (A) (A) (A) (A) (A)
                 (A) (A) (A) (A) (A) (A) (A) (A) (A) (A) (A) (A)
                 (A) (A) (A) (A) (A) (A) (A) (A) (A) (A) (A) (A)
                 (A) (A) (A) (A) (A) (A) (A) (A) (A) (A) (A) (A)
                 (A) (A) (A) (A) (A) (A) (A) (A) (A) (A) (A) (A)
                 (A) (A) (A) (A) (A) (A) (A) (A) (A) (A) (A) (A)
                 (A) (A) (A) (A) (A) (A) (A) (A) (A) (A) (A) (A)
                 (A) (A) (A) (A) (A) (A) (A) (A) (A) (A) (A) (A)
                 (A) (A) (A) (A) (A) (A) (A) (A) (A) (A) (A) (A)
                 (A) (A) (A) (A) (A) (A) (A) (A) (A) (A) (A) (A)
                 (A) (A) (A) (A) (A) (A) (A) (A) (A) (A) (A) (A)
                 (A) (A) (A) (A) (A) (A) (A) (A) (A) (A) (A) (A)
                 (A) (A) (A) (A) (A) (A) (A) (A) (A) (A) (A) (A)
                 (A) (A) (A) (A) (A) (A) (A) (A) (A) (A) (A) (A)
                 (A) (A) (A) (A) (A) (A) (A) (A) (A) (A) (A) (A)
                 (A) (A) (A) (A) (A) (A) (A) (A) (A) (A) (A) (A)
                 (A) (A) (A) (A) (A) (A) (A) (A) (A) (A) (A) (A)
                 (A) (A) (A) (A) (A) (A) (A) (A) (A) (A) (A) (A)
                 (A) (A) (A) (A) (A) (A) (A) (A) (A) (A) (A) (A)
                 (A) (A) (A) (A) (A) (A) (A) (A) (A) (A) (A) (A)
                 (A) (A) (A) (A) (A) (A) (A) (A) (A) (A) (A) (A)
                 (A) (A) (A) (A) (A) (A) (A) (A) (A) (A) (A) (A)
                 (A) (A) (A) (A) (A) (A) (A) (A) (A) (A) (A) (A)
                 (A) (A) (A) (A) (A) (A) (A) (A) (A) (A) (A) (A)
                 (A) (A) (A) (A) (A) (A) (A) (A) (A) (A) (A) (A)
                 (A) (A) (A) (A) (A) (A) (A) (A) (A) (A) (A) (A)
                 (A) (A) (A) (A) (A) (A) (A) (A) (A) (A) (A) (A)
                 (A) (A) (A) (A) (A) (A) (A) (A) (A) (A) (A) (A)
                 (A) (A) (A) (A) (A) (A) (A) (A) (A) (A) (A) (A)
                 (A) (A) (A) (A) (A) (A) (A) (A) (A) (A) (A) (A)
                 (A) (A) (A) (A) (A) (A) (A) (A) (A) (A) (A) (A)
                 (A) (A) (A) (A) (A) (A) (A) (A) (A) (A) (A) (A)
                 (A) (A) (A) (A) (A) (A) (A) (A) (A) (A) (A) (A)
                 (A) (A) (A) (A) (A) (A) (A) (A) (A) (A) (A) (A)
                 (A) (A) (A) (A) (A) (A) (A) (A) (A) (A) (A) (A)
                 (A) (A) (A) (A) (A) (A) (A) (A) (A) (A) (A) (A)
                 (A) (A) (A) (A) (A) (A) (A) (A) (A) (A) (A) (A)
                 (A) (A) (A) (A) (A) (A) (A) (A) (A) (A) (A) (A)
                 (A) (A) (A) (A) (A) (A) (A) (A) (A) (A) (A) (A)
                 (A) (A) (A) (A) (A) (A) (A) (A) (A) (A) (A) (A)
                 (A) (A) (A) (A) (A) (A) (A) (A) (A) (A) (A) (A)
                 (A) (A) (A) (A) (A) (A) (A) (A) (A) (A) (A) (A)
                 (A) (A) (A) (A) (A) (A) (A) (A) (A) (A) (A) (A)
                 (A) (A) (A) (A) (A) (A) (A) (A) (A) (A) (A) (A)
                 (A) (A) (A) (A) (A) (A)
 The electronic state is 1-A.
 Alpha  occ. eigenvalues --  -19.37117 -19.35375 -19.34147 -19.34084 -19.31797
 Alpha  occ. eigenvalues --  -14.66726 -10.50453 -10.46659 -10.45870 -10.45781
 Alpha  occ. eigenvalues --  -10.45229 -10.43418 -10.40434  -1.30654  -1.27751
 Alpha  occ. eigenvalues --   -1.25139  -1.24551  -1.23846  -1.23308  -1.02024
 Alpha  occ. eigenvalues --   -1.01562  -0.93903  -0.90733  -0.87158  -0.86675
 Alpha  occ. eigenvalues --   -0.82832  -0.80970  -0.78158  -0.76775  -0.75352
 Alpha  occ. eigenvalues --   -0.72757  -0.71225  -0.70828  -0.69687  -0.68814
 Alpha  occ. eigenvalues --   -0.67004  -0.66069  -0.65667  -0.63034  -0.62606
 Alpha  occ. eigenvalues --   -0.61253  -0.59362  -0.58636  -0.56725  -0.55559
 Alpha  occ. eigenvalues --   -0.54062  -0.52878  -0.50481  -0.49557  -0.48896
 Alpha  occ. eigenvalues --   -0.47888  -0.47515
 Alpha virt. eigenvalues --   -0.13264  -0.10029  -0.09219  -0.08907  -0.07603
 Alpha virt. eigenvalues --   -0.06624  -0.06284  -0.06067  -0.05219  -0.03806
 Alpha virt. eigenvalues --   -0.03359  -0.03026  -0.02959  -0.02524  -0.01646
 Alpha virt. eigenvalues --   -0.01319  -0.00530  -0.00228   0.00467   0.00673
 Alpha virt. eigenvalues --    0.01026   0.01193   0.02126   0.02202   0.02378
 Alpha virt. eigenvalues --    0.02725   0.02896   0.03578   0.03958   0.04422
 Alpha virt. eigenvalues --    0.04549   0.05027   0.05357   0.05512   0.05967
 Alpha virt. eigenvalues --    0.06465   0.06821   0.07054   0.07686   0.08080
 Alpha virt. eigenvalues --    0.08447   0.08526   0.08869   0.09010   0.09260
 Alpha virt. eigenvalues --    0.09679   0.10700   0.10798   0.11074   0.11415
 Alpha virt. eigenvalues --    0.12265   0.12861   0.13215   0.13518   0.14195
 Alpha virt. eigenvalues --    0.15058   0.15373   0.16150   0.16282   0.16492
 Alpha virt. eigenvalues --    0.17474   0.18244   0.18614   0.18998   0.19353
 Alpha virt. eigenvalues --    0.19773   0.20295   0.20995   0.21373   0.21993
 Alpha virt. eigenvalues --    0.22358   0.22972   0.23279   0.23617   0.23989
 Alpha virt. eigenvalues --    0.24042   0.24237   0.24770   0.25540   0.26075
 Alpha virt. eigenvalues --    0.26242   0.27231   0.27681   0.28046   0.28579
 Alpha virt. eigenvalues --    0.29170   0.29915   0.30272   0.31066   0.32240
 Alpha virt. eigenvalues --    0.32705   0.34136   0.35544   0.36040   0.37269
 Alpha virt. eigenvalues --    0.38400   0.38575   0.39054   0.41700   0.41988
 Alpha virt. eigenvalues --    0.43122   0.43857   0.44578   0.45061   0.45656
 Alpha virt. eigenvalues --    0.46338   0.47228   0.47548   0.48057   0.48686
 Alpha virt. eigenvalues --    0.49857   0.50762   0.51283   0.51611   0.52407
 Alpha virt. eigenvalues --    0.52586   0.53199   0.53534   0.54216   0.54663
 Alpha virt. eigenvalues --    0.55093   0.55733   0.56538   0.56886   0.57602
 Alpha virt. eigenvalues --    0.57718   0.58435   0.59215   0.59595   0.60500
 Alpha virt. eigenvalues --    0.60879   0.63012   0.63421   0.63572   0.65199
 Alpha virt. eigenvalues --    0.65402   0.65536   0.67646   0.68639   0.69941
 Alpha virt. eigenvalues --    0.72227   0.73706   0.73994   0.75775   0.77046
 Alpha virt. eigenvalues --    0.77120   0.79252   0.80314   0.81505   0.82803
 Alpha virt. eigenvalues --    0.83243   0.84131   0.84970   0.87236   0.87582
 Alpha virt. eigenvalues --    0.88604   0.89890   0.91089   0.92201   0.93565
 Alpha virt. eigenvalues --    0.94654   0.95182   0.96764   0.97544   0.97698
 Alpha virt. eigenvalues --    0.99399   0.99725   1.01237   1.01950   1.02157
 Alpha virt. eigenvalues --    1.03364   1.04421   1.06052   1.06254   1.07141
 Alpha virt. eigenvalues --    1.08348   1.09129   1.10305   1.11117   1.11721
 Alpha virt. eigenvalues --    1.11729   1.12844   1.13431   1.14408   1.15836
 Alpha virt. eigenvalues --    1.16984   1.17421   1.17917   1.19070   1.19857
 Alpha virt. eigenvalues --    1.19962   1.20829   1.22014   1.22769   1.23436
 Alpha virt. eigenvalues --    1.24209   1.24469   1.25124   1.26523   1.27195
 Alpha virt. eigenvalues --    1.28215   1.28492   1.29049   1.29896   1.31525
 Alpha virt. eigenvalues --    1.31976   1.32316   1.32862   1.33655   1.34228
 Alpha virt. eigenvalues --    1.35771   1.35969   1.36389   1.36862   1.37276
 Alpha virt. eigenvalues --    1.38916   1.39392   1.39596   1.40352   1.40660
 Alpha virt. eigenvalues --    1.42568   1.43745   1.44033   1.45743   1.47527
 Alpha virt. eigenvalues --    1.48003   1.49024   1.50006   1.50301   1.51210
 Alpha virt. eigenvalues --    1.52247   1.52605   1.53791   1.54554   1.54943
 Alpha virt. eigenvalues --    1.56361   1.58388   1.59319   1.60678   1.62497
 Alpha virt. eigenvalues --    1.63415   1.65212   1.68560   1.69017   1.71668
 Alpha virt. eigenvalues --    1.72342   1.74814   1.76577   1.77131   1.80716
 Alpha virt. eigenvalues --    1.82293   1.83380   1.87228   1.88439   1.91068
 Alpha virt. eigenvalues --    1.92363   1.95627   1.99170   1.99788   2.01974
 Alpha virt. eigenvalues --    2.03725   2.06039   2.07887   2.12622   2.14300
 Alpha virt. eigenvalues --    2.15011   2.16449   2.18773   2.20078   2.21453
 Alpha virt. eigenvalues --    2.24639   2.25340   2.27074   2.29156   2.33456
 Alpha virt. eigenvalues --    2.33740   2.36083   2.37224   2.42138   2.42853
 Alpha virt. eigenvalues --    2.46173   2.48690   2.51751   2.52152   2.53248
 Alpha virt. eigenvalues --    2.55166   2.58491   2.60025   2.60355   2.62551
 Alpha virt. eigenvalues --    2.64378   2.65097   2.67884   2.68083   2.68711
 Alpha virt. eigenvalues --    2.71357   2.72186   2.72733   2.73565   2.75757
 Alpha virt. eigenvalues --    2.77467   2.78059   2.79126   2.79858   2.81008
 Alpha virt. eigenvalues --    2.81922   2.82838   2.84437   2.85840   2.86996
 Alpha virt. eigenvalues --    2.88218   2.89359   2.90686   2.91677   2.92742
 Alpha virt. eigenvalues --    2.93495   2.94622   2.95680   2.96370   2.97176
 Alpha virt. eigenvalues --    2.99053   3.00411   3.00556   3.01641   3.03715
 Alpha virt. eigenvalues --    3.04147   3.05095   3.06442   3.08338   3.09714
 Alpha virt. eigenvalues --    3.10368   3.10845   3.12187   3.12941   3.14704
 Alpha virt. eigenvalues --    3.14984   3.15644   3.16488   3.17309   3.18273
 Alpha virt. eigenvalues --    3.19730   3.20909   3.21350   3.21948   3.22834
 Alpha virt. eigenvalues --    3.23399   3.24250   3.25386   3.25732   3.26692
 Alpha virt. eigenvalues --    3.26857   3.28515   3.29740   3.30082   3.31444
 Alpha virt. eigenvalues --    3.32204   3.33884   3.34177   3.35231   3.36518
 Alpha virt. eigenvalues --    3.36697   3.39057   3.39901   3.40851   3.41220
 Alpha virt. eigenvalues --    3.41993   3.43367   3.44739   3.45245   3.46735
 Alpha virt. eigenvalues --    3.47596   3.48994   3.49722   3.50036   3.50756
 Alpha virt. eigenvalues --    3.51139   3.51902   3.52349   3.53114   3.55088
 Alpha virt. eigenvalues --    3.55523   3.57116   3.57296   3.58605   3.58924
 Alpha virt. eigenvalues --    3.58997   3.59376   3.59782   3.60689   3.63028
 Alpha virt. eigenvalues --    3.64761   3.64974   3.66066   3.66892   3.67979
 Alpha virt. eigenvalues --    3.69112   3.69768   3.71209   3.71598   3.72472
 Alpha virt. eigenvalues --    3.73379   3.74051   3.75718   3.76737   3.77339
 Alpha virt. eigenvalues --    3.78111   3.78685   3.80926   3.81379   3.81602
 Alpha virt. eigenvalues --    3.83672   3.85152   3.85815   3.87117   3.87930
 Alpha virt. eigenvalues --    3.88358   3.89067   3.89599   3.91241   3.91652
 Alpha virt. eigenvalues --    3.93028   3.93484   3.94632   3.95811   3.96435
 Alpha virt. eigenvalues --    3.97790   3.97914   3.98839   4.00114   4.01198
 Alpha virt. eigenvalues --    4.01519   4.02368   4.04375   4.05896   4.06982
 Alpha virt. eigenvalues --    4.08055   4.08718   4.09309   4.11810   4.12135
 Alpha virt. eigenvalues --    4.12597   4.13239   4.14265   4.14669   4.15399
 Alpha virt. eigenvalues --    4.15758   4.16671   4.17920   4.20009   4.21919
 Alpha virt. eigenvalues --    4.22660   4.23374   4.24481   4.25465   4.25988
 Alpha virt. eigenvalues --    4.27390   4.29237   4.30249   4.31154   4.32333
 Alpha virt. eigenvalues --    4.32512   4.32772   4.34931   4.35683   4.37827
 Alpha virt. eigenvalues --    4.39137   4.40980   4.41879   4.46293   4.46951
 Alpha virt. eigenvalues --    4.48201   4.50345   4.52019   4.53635   4.54598
 Alpha virt. eigenvalues --    4.57288   4.61063   4.62046   4.63324   4.64016
 Alpha virt. eigenvalues --    4.66869   4.67344   4.68131   4.69606   4.70824
 Alpha virt. eigenvalues --    4.72932   4.73384   4.74001   4.75125   4.78103
 Alpha virt. eigenvalues --    4.79842   4.80631   4.82519   4.84722   4.86528
 Alpha virt. eigenvalues --    4.89032   4.89757   4.92176   4.92828   4.95174
 Alpha virt. eigenvalues --    4.95837   4.97149   4.99108   5.00317   5.00855
 Alpha virt. eigenvalues --    5.02935   5.04447   5.05909   5.06694   5.08711
 Alpha virt. eigenvalues --    5.10501   5.11700   5.13252   5.14581   5.15920
 Alpha virt. eigenvalues --    5.16620   5.18186   5.18768   5.19845   5.22171
 Alpha virt. eigenvalues --    5.23276   5.25245   5.26724   5.27952   5.29793
 Alpha virt. eigenvalues --    5.29926   5.32416   5.34082   5.36535   5.37588
 Alpha virt. eigenvalues --    5.37807   5.39223   5.41287   5.42405   5.44389
 Alpha virt. eigenvalues --    5.45426   5.47519   5.49838   5.51080   5.52799
 Alpha virt. eigenvalues --    5.53269   5.54047   5.55665   5.58545   5.61166
 Alpha virt. eigenvalues --    5.62835   5.62933   5.63137   5.66463   5.67690
 Alpha virt. eigenvalues --    5.69216   5.71431   5.73811   5.77723   5.80132
 Alpha virt. eigenvalues --    5.81750   5.84054   5.85987   5.87856   5.91042
 Alpha virt. eigenvalues --    5.91197   5.98562   5.99765   6.02944   6.08476
 Alpha virt. eigenvalues --    6.10848   6.15067   6.16922   6.18848   6.24713
 Alpha virt. eigenvalues --    6.25398   6.29212   6.34464   6.37934   6.44858
 Alpha virt. eigenvalues --    6.45394   6.47513   6.53835   6.54443   6.56148
 Alpha virt. eigenvalues --    6.57749   6.59128   6.63801   6.67467   6.74309
 Alpha virt. eigenvalues --    6.77708   6.81054   7.03075   7.06318   7.11379
 Alpha virt. eigenvalues --    7.12084   7.15611   7.17792   7.21208   7.23244
 Alpha virt. eigenvalues --    7.25370   7.27185   7.30131   7.31572   7.33743
 Alpha virt. eigenvalues --    7.34886   7.37872   7.41943   7.50920   7.53033
 Alpha virt. eigenvalues --    7.56098   7.59553   7.61321   7.67239   7.78059
 Alpha virt. eigenvalues --    7.78529   7.83548   7.90084   7.98084   8.01160
 Alpha virt. eigenvalues --    8.01999   8.13752  24.64737  24.67013  24.71851
 Alpha virt. eigenvalues --   24.76138  24.79703  25.01197  25.26173  36.46473
 Alpha virt. eigenvalues --   50.06474  50.10651  50.25869  50.27966  50.32403
          Condensed to atoms (all electrons):
               1          2          3          4          5          6
     1  C    8.253218   0.156619  -1.324059   0.001980   0.295060   0.988659
     2  O    0.156619   8.014086   0.350082  -0.027765  -0.304247   0.111875
     3  C   -1.324059   0.350082   8.922098   0.312753  -4.676074   1.494246
     4  O    0.001980  -0.027765   0.312753   7.949003  -0.070227  -0.042008
     5  C    0.295060  -0.304247  -4.676074  -0.070227  15.946893  -6.290761
     6  C    0.988659   0.111875   1.494246  -0.042008  -6.290761  12.968664
     7  O   -0.148473   0.008234   0.017654   0.014471  -0.062225   0.601200
     8  C   -2.211769  -0.047707   0.514344  -0.004283   1.448191  -4.134653
     9  O   -0.159194   0.042618  -0.023981  -0.000982  -0.112764   0.083471
    10  C   -0.715701  -0.006652   0.049165   0.043868   0.121713  -0.035385
    11  O    0.061859   0.019933   0.049671  -0.009914  -0.069436   0.021793
    12  H    0.549117  -0.070129  -0.010760  -0.001019  -0.017385   0.043901
    13  H   -0.024547  -0.083598   0.450173  -0.045536  -0.097736   0.032869
    14  H    0.006589   0.003632  -0.009533   0.005632   0.317169   0.029499
    15  H    0.032121  -0.006986  -0.060280  -0.004938   0.168460   0.212173
    16  H    0.027763  -0.007105  -0.069379  -0.009188   0.175093  -0.285520
    17  H   -0.027456   0.009186   0.003825   0.000227  -0.048402   0.062523
    18  H   -0.040804  -0.003269  -0.009943   0.000019   0.085543  -0.166903
    19  H    0.063764   0.002274  -0.009139  -0.002400   0.011172  -0.024454
    20  H   -0.089175  -0.006257   0.011250   0.002283  -0.004805   0.016937
    21  H   -0.090140   0.000606   0.007284   0.000721   0.005540  -0.005825
    22  N   -0.051697   0.098402   0.299632   0.004336  -0.772809   0.409602
    23  H   -0.008822  -0.002147   0.005866  -0.000712   0.018616  -0.049983
    24  H   -0.004559  -0.018084   0.006238  -0.000522   0.005251   0.028309
    25  H    0.001182   0.003167  -0.043723   0.000256   0.038841   0.014444
    26  C    0.029024  -0.002101  -0.089371   0.105310  -0.123255   0.097973
    27  H    0.011525   0.000438  -0.009775  -0.065817  -0.001738   0.001099
    28  H   -0.007981   0.001393   0.025361  -0.049637  -0.025159   0.014199
    29  H   -0.012438   0.006904  -0.023500  -0.038840   0.036724  -0.026355
               7          8          9         10         11         12
     1  C   -0.148473  -2.211769  -0.159194  -0.715701   0.061859   0.549117
     2  O    0.008234  -0.047707   0.042618  -0.006652   0.019933  -0.070129
     3  C    0.017654   0.514344  -0.023981   0.049165   0.049671  -0.010760
     4  O    0.014471  -0.004283  -0.000982   0.043868  -0.009914  -0.001019
     5  C   -0.062225   1.448191  -0.112764   0.121713  -0.069436  -0.017385
     6  C    0.601200  -4.134653   0.083471  -0.035385   0.021793   0.043901
     7  O    7.721546  -0.109850   0.001732   0.048739  -0.003445  -0.004834
     8  C   -0.109850   9.941496   0.178724   0.153330  -0.004032  -0.113337
     9  O    0.001732   0.178724   8.085276   0.038081   0.002102  -0.009983
    10  C    0.048739   0.153330   0.038081   5.621613   0.026077  -0.089802
    11  O   -0.003445  -0.004032   0.002102   0.026077   8.214317   0.007034
    12  H   -0.004834  -0.113337  -0.009983  -0.089802   0.007034   0.642867
    13  H   -0.000320  -0.010393  -0.002154   0.005875   0.004748   0.001702
    14  H   -0.006523  -0.010344   0.000174  -0.001634  -0.002620   0.000863
    15  H   -0.065137   0.003368  -0.008893  -0.003194  -0.002624   0.001513
    16  H    0.282391   0.137935  -0.001924  -0.008305   0.001666   0.000393
    17  H   -0.005508   0.330587  -0.016659  -0.000650   0.015445   0.003234
    18  H    0.000599   0.203029   0.183916  -0.014584  -0.000173   0.000329
    19  H    0.001401  -0.003085  -0.003879   0.380453  -0.063126  -0.008364
    20  H   -0.000117  -0.031010   0.000821   0.477259  -0.047273  -0.005639
    21  H    0.004801   0.000782   0.000351   0.119654   0.112326  -0.000550
    22  N   -0.013465  -0.061139   0.038929   0.023664   0.001280  -0.005524
    23  H   -0.000527   0.033288   0.002671  -0.002162  -0.000283   0.000030
    24  H    0.000634  -0.006348   0.010598  -0.002345   0.000177   0.002079
    25  H   -0.000126  -0.014365   0.001929   0.002019   0.000154  -0.000594
    26  C   -0.008661  -0.035485  -0.000165  -0.004982   0.010313   0.003492
    27  H   -0.000101  -0.002034  -0.000035   0.000271   0.000883   0.000449
    28  H    0.000387  -0.005805   0.000070   0.008507  -0.002038  -0.000244
    29  H    0.000291   0.022735  -0.000325  -0.008099   0.004427  -0.001132
              13         14         15         16         17         18
     1  C   -0.024547   0.006589   0.032121   0.027763  -0.027456  -0.040804
     2  O   -0.083598   0.003632  -0.006986  -0.007105   0.009186  -0.003269
     3  C    0.450173  -0.009533  -0.060280  -0.069379   0.003825  -0.009943
     4  O   -0.045536   0.005632  -0.004938  -0.009188   0.000227   0.000019
     5  C   -0.097736   0.317169   0.168460   0.175093  -0.048402   0.085543
     6  C    0.032869   0.029499   0.212173  -0.285520   0.062523  -0.166903
     7  O   -0.000320  -0.006523  -0.065137   0.282391  -0.005508   0.000599
     8  C   -0.010393  -0.010344   0.003368   0.137935   0.330587   0.203029
     9  O   -0.002154   0.000174  -0.008893  -0.001924  -0.016659   0.183916
    10  C    0.005875  -0.001634  -0.003194  -0.008305  -0.000650  -0.014584
    11  O    0.004748  -0.002620  -0.002624   0.001666   0.015445  -0.000173
    12  H    0.001702   0.000863   0.001513   0.000393   0.003234   0.000329
    13  H    0.686920  -0.012272  -0.001166  -0.001688   0.001158   0.000376
    14  H   -0.012272   0.524806   0.003065  -0.001184   0.001191  -0.000401
    15  H   -0.001166   0.003065   0.634104   0.011752  -0.007622   0.000181
    16  H   -0.001688  -0.001184   0.011752   0.459160  -0.006579   0.001187
    17  H    0.001158   0.001191  -0.007622  -0.006579   0.568301  -0.005185
    18  H    0.000376  -0.000401   0.000181   0.001187  -0.005185   0.515995
    19  H   -0.000170  -0.000660   0.000206   0.004492  -0.010096   0.000529
    20  H    0.001440   0.000796  -0.000337  -0.005578   0.003612  -0.000497
    21  H    0.000749  -0.000006  -0.000124   0.002124  -0.001474  -0.000132
    22  N   -0.009320   0.008211   0.004062  -0.002439   0.003274  -0.016476
    23  H    0.003092  -0.001549   0.001229   0.000768  -0.000194  -0.000844
    24  H    0.000660   0.001942  -0.008707  -0.001119   0.000248   0.001444
    25  H    0.002627  -0.004326  -0.006814  -0.000355  -0.000058   0.000130
    26  C    0.035914  -0.001026   0.000027  -0.002269   0.001265  -0.000525
    27  H    0.004270   0.000137  -0.000042  -0.000056  -0.000048   0.000014
    28  H   -0.000876  -0.000930  -0.000206  -0.001558   0.000072  -0.000055
    29  H   -0.008779   0.000080   0.000055   0.002059  -0.000442   0.000162
              19         20         21         22         23         24
     1  C    0.063764  -0.089175  -0.090140  -0.051697  -0.008822  -0.004559
     2  O    0.002274  -0.006257   0.000606   0.098402  -0.002147  -0.018084
     3  C   -0.009139   0.011250   0.007284   0.299632   0.005866   0.006238
     4  O   -0.002400   0.002283   0.000721   0.004336  -0.000712  -0.000522
     5  C    0.011172  -0.004805   0.005540  -0.772809   0.018616   0.005251
     6  C   -0.024454   0.016937  -0.005825   0.409602  -0.049983   0.028309
     7  O    0.001401  -0.000117   0.004801  -0.013465  -0.000527   0.000634
     8  C   -0.003085  -0.031010   0.000782  -0.061139   0.033288  -0.006348
     9  O   -0.003879   0.000821   0.000351   0.038929   0.002671   0.010598
    10  C    0.380453   0.477259   0.119654   0.023664  -0.002162  -0.002345
    11  O   -0.063126  -0.047273   0.112326   0.001280  -0.000283   0.000177
    12  H   -0.008364  -0.005639  -0.000550  -0.005524   0.000030   0.002079
    13  H   -0.000170   0.001440   0.000749  -0.009320   0.003092   0.000660
    14  H   -0.000660   0.000796  -0.000006   0.008211  -0.001549   0.001942
    15  H    0.000206  -0.000337  -0.000124   0.004062   0.001229  -0.008707
    16  H    0.004492  -0.005578   0.002124  -0.002439   0.000768  -0.001119
    17  H   -0.010096   0.003612  -0.001474   0.003274  -0.000194   0.000248
    18  H    0.000529  -0.000497  -0.000132  -0.016476  -0.000844   0.001444
    19  H    0.662241  -0.064515  -0.009083  -0.001585   0.000079   0.000583
    20  H   -0.064515   0.640179  -0.003181   0.001297  -0.000421  -0.000254
    21  H   -0.009083  -0.003181   0.558564   0.000129  -0.000024  -0.000073
    22  N   -0.001585   0.001297   0.000129   5.790653   0.360564   0.322213
    23  H    0.000079  -0.000421  -0.000024   0.360564   0.542396  -0.024684
    24  H    0.000583  -0.000254  -0.000073   0.322213  -0.024684   0.465573
    25  H   -0.000051   0.000119   0.000032   0.365769  -0.038757  -0.029633
    26  C   -0.001569   0.004876   0.000661   0.008929  -0.000481   0.000391
    27  H    0.000004  -0.000726  -0.000083   0.002422   0.000344  -0.000386
    28  H    0.000097   0.000157   0.001210   0.000828  -0.000062   0.000183
    29  H    0.001312  -0.001931  -0.003341  -0.002248   0.000220   0.000059
              25         26         27         28         29
     1  C    0.001182   0.029024   0.011525  -0.007981  -0.012438
     2  O    0.003167  -0.002101   0.000438   0.001393   0.006904
     3  C   -0.043723  -0.089371  -0.009775   0.025361  -0.023500
     4  O    0.000256   0.105310  -0.065817  -0.049637  -0.038840
     5  C    0.038841  -0.123255  -0.001738  -0.025159   0.036724
     6  C    0.014444   0.097973   0.001099   0.014199  -0.026355
     7  O   -0.000126  -0.008661  -0.000101   0.000387   0.000291
     8  C   -0.014365  -0.035485  -0.002034  -0.005805   0.022735
     9  O    0.001929  -0.000165  -0.000035   0.000070  -0.000325
    10  C    0.002019  -0.004982   0.000271   0.008507  -0.008099
    11  O    0.000154   0.010313   0.000883  -0.002038   0.004427
    12  H   -0.000594   0.003492   0.000449  -0.000244  -0.001132
    13  H    0.002627   0.035914   0.004270  -0.000876  -0.008779
    14  H   -0.004326  -0.001026   0.000137  -0.000930   0.000080
    15  H   -0.006814   0.000027  -0.000042  -0.000206   0.000055
    16  H   -0.000355  -0.002269  -0.000056  -0.001558   0.002059
    17  H   -0.000058   0.001265  -0.000048   0.000072  -0.000442
    18  H    0.000130  -0.000525   0.000014  -0.000055   0.000162
    19  H   -0.000051  -0.001569   0.000004   0.000097   0.001312
    20  H    0.000119   0.004876  -0.000726   0.000157  -0.001931
    21  H    0.000032   0.000661  -0.000083   0.001210  -0.003341
    22  N    0.365769   0.008929   0.002422   0.000828  -0.002248
    23  H   -0.038757  -0.000481   0.000344  -0.000062   0.000220
    24  H   -0.029633   0.000391  -0.000386   0.000183   0.000059
    25  H    0.536954   0.000163   0.000137   0.000047  -0.000095
    26  C    0.000163   4.722550   0.435980   0.415075   0.407822
    27  H    0.000137   0.435980   0.652536  -0.031420  -0.051540
    28  H    0.000047   0.415075  -0.031420   0.608075  -0.037800
    29  H   -0.000095   0.407822  -0.051540  -0.037800   0.662067
 Mulliken charges:
               1
     1  C    0.438337
     2  O   -0.243401
     3  C   -0.160124
     4  O   -0.067072
     5  C    0.002758
     6  C   -0.171586
     7  O   -0.274764
     8  C   -0.162168
     9  O   -0.330523
    10  C   -0.226793
    11  O   -0.349240
    12  H    0.082292
    13  H    0.065985
    14  H    0.149221
    15  H    0.104755
    16  H    0.297464
    17  H    0.126227
    18  H    0.266338
    19  H    0.073567
    20  H    0.100692
    21  H    0.298503
    22  N    0.192509
    23  H    0.162491
    24  H    0.250131
    25  H    0.170927
    26  C   -0.009878
    27  H    0.053295
    28  H    0.088110
    29  H    0.071948
 Sum of Mulliken charges =   1.00000
 Mulliken charges with hydrogens summed into heavy atoms:
               1
     1  C    0.520630
     2  O   -0.243401
     3  C   -0.094139
     4  O   -0.067072
     5  C    0.151978
     6  C   -0.066830
     7  O    0.022700
     8  C   -0.035942
     9  O   -0.064185
    10  C   -0.052534
    11  O   -0.050738
    22  N    0.776058
    26  C    0.203475
 Electronic spatial extent (au):  <R**2>=           2114.5756
 Charge=              1.0000 electrons
 Dipole moment (field-independent basis, Debye):
    X=              4.2762    Y=              1.9087    Z=             -3.2040  Tot=              5.6740
 Quadrupole moment (field-independent basis, Debye-Ang):
   XX=            -44.7312   YY=            -46.5652   ZZ=            -79.2609
   XY=             13.0753   XZ=             -2.7760   YZ=              2.2311
 Traceless Quadrupole moment (field-independent basis, Debye-Ang):
   XX=             12.1212   YY=             10.2873   ZZ=            -22.4085
   XY=             13.0753   XZ=             -2.7760   YZ=              2.2311
 Octapole moment (field-independent basis, Debye-Ang**2):
  XXX=             11.8540  YYY=              4.4855  ZZZ=            -13.2826  XYY=             16.8123
  XXY=             17.0661  XXZ=             -2.5322  XZZ=              7.0531  YZZ=             -3.6281
  YYZ=            -12.9240  XYZ=             11.6237
 Hexadecapole moment (field-independent basis, Debye-Ang**3):
 XXXX=           -950.7849 YYYY=           -736.2939 ZZZZ=           -555.7167 XXXY=             84.6962
 XXXZ=            -42.8648 YYYX=             83.0296 YYYZ=            -16.7056 ZZZX=            -35.5321
 ZZZY=             16.4896 XXYY=           -193.4941 XXZZ=           -238.9935 YYZZ=           -206.3423
 XXYZ=              0.9155 YYXZ=            -29.8011 ZZXY=             11.2545
 N-N= 1.002837351492D+03 E-N=-3.647433132207D+03  KE= 7.042925101454D+02
 Calling FoFJK, ICntrl=      2127 FMM=F ISym2X=0 I1Cent= 0 IOpClX= 0 NMat=1 NMatS=1 NMatT=0.
 ***** Axes restored to original set *****
 -------------------------------------------------------------------
 Center     Atomic                   Forces (Hartrees/Bohr)
 Number     Number              X              Y              Z
 -------------------------------------------------------------------
      1        6           0.003713514   -0.000701581   -0.000027989
      2        8           0.000784200    0.006534289   -0.006925056
      3        6          -0.003802849    0.000865905   -0.001714924
      4        8          -0.001591501   -0.004197767    0.006308608
      5        6          -0.002439592   -0.000354017    0.002548261
      6        6          -0.000234076   -0.002202566   -0.000257879
      7        8          -0.000875534   -0.004043162    0.006864723
      8        6           0.003463813   -0.001082875    0.002474335
      9        8          -0.003091692   -0.003247390   -0.005996695
     10        6           0.004108175    0.002139868   -0.001007465
     11        8          -0.004188522   -0.001947821    0.004658769
     12        1           0.001333145    0.000778801   -0.001800121
     13        1          -0.001236836    0.001170405   -0.001540354
     14        1          -0.001987944   -0.000436124    0.000979781
     15        1          -0.000472974   -0.002121772   -0.000105207
     16        1           0.000847563    0.002157181    0.000623724
     17        1           0.001730678   -0.001404307    0.000714817
     18        1           0.002316979   -0.000137301   -0.001693380
     19        1           0.002554617   -0.000843424   -0.000431878
     20        1           0.000548442    0.002380977   -0.000370417
     21        1           0.001890263    0.000711284    0.001974386
     22        7          -0.001682763   -0.000723670   -0.002824745
     23        1          -0.001869920    0.001682154   -0.001675352
     24        1           0.001706205   -0.000344129   -0.002146224
     25        1          -0.001499551   -0.002431200   -0.000436760
     26        6           0.000237715    0.004894849    0.001125229
     27        1          -0.001861053    0.001399656   -0.001020833
     28        1          -0.000261277    0.000178783    0.002242905
     29        1           0.001860776    0.001324953   -0.000540255
 -------------------------------------------------------------------
 Cartesian Forces:  Max     0.006925056 RMS     0.002507201

 GradGradGradGradGradGradGradGradGradGradGradGradGradGradGradGradGradGrad
 Berny optimization.
 FormGI is forming the generalized inverse of G from B-inverse, IUseBI=4.
 Internal  Forces:  Max     0.009530925 RMS     0.002523250
 Search for a local minimum.
 Step number   1 out of a maximum of  167
 All quantities printed in internal units (Hartrees-Bohrs-Radians)
 Mixed Optimization -- RFO/linear search
 Second derivative matrix not updated -- first step.
 ITU=  0
     Eigenvalues ---    0.00230   0.00387   0.00423   0.00452   0.01016
     Eigenvalues ---    0.01122   0.01218   0.01353   0.01817   0.01966
     Eigenvalues ---    0.02830   0.03215   0.03954   0.04298   0.04372
     Eigenvalues ---    0.04658   0.04924   0.04941   0.05190   0.05327
     Eigenvalues ---    0.05414   0.05777   0.06138   0.06262   0.06458
     Eigenvalues ---    0.07061   0.07277   0.07552   0.09037   0.10088
     Eigenvalues ---    0.10172   0.10306   0.10604   0.11367   0.13915
     Eigenvalues ---    0.15076   0.16000   0.16000   0.16000   0.16000
     Eigenvalues ---    0.16000   0.16000   0.16000   0.16000   0.16000
     Eigenvalues ---    0.16883   0.17228   0.17922   0.19216   0.21213
     Eigenvalues ---    0.22095   0.25000   0.26234   0.27028   0.27374
     Eigenvalues ---    0.28496   0.29548   0.29862   0.33445   0.34006
     Eigenvalues ---    0.34194   0.34202   0.34244   0.34249   0.34511
     Eigenvalues ---    0.34639   0.34930   0.35129   0.37588   0.38107
     Eigenvalues ---    0.40168   0.40914   0.41026   0.41622   0.43902
     Eigenvalues ---    0.43934   0.47229   0.49242   0.52211   0.54602
     Eigenvalues ---    0.54777
 RFO step:  Lambda=-3.37271567D-03 EMin= 2.30000000D-03
 Linear search not attempted -- first point.
 Iteration  1 RMS(Cart)=  0.05302436 RMS(Int)=  0.00035758
 Iteration  2 RMS(Cart)=  0.00070674 RMS(Int)=  0.00003242
 Iteration  3 RMS(Cart)=  0.00000025 RMS(Int)=  0.00003242
 Variable       Old X    -DE/DX   Delta X   Delta X   Delta X     New X
                                 (Linear)    (Quad)   (Total)
    R1        2.72998  -0.00937   0.00000  -0.02457  -0.02455   2.70542
    R2        2.91252  -0.00787   0.00000  -0.02718  -0.02716   2.88536
    R3        2.88874  -0.00721   0.00000  -0.02411  -0.02411   2.86463
    R4        2.06913  -0.00234   0.00000  -0.00675  -0.00675   2.06237
    R5        2.68347  -0.00953   0.00000  -0.02319  -0.02319   2.66028
    R6        2.60639  -0.00887   0.00000  -0.01788  -0.01788   2.58850
    R7        2.90888  -0.00733   0.00000  -0.02559  -0.02561   2.88327
    R8        2.08277  -0.00226   0.00000  -0.00669  -0.00669   2.07608
    R9        2.71326  -0.00796   0.00000  -0.01966  -0.01966   2.69360
   R10        2.93478  -0.00818   0.00000  -0.02862  -0.02863   2.90615
   R11        2.05789  -0.00223   0.00000  -0.00632  -0.00632   2.05158
   R12        2.88240  -0.00791   0.00000  -0.02618  -0.02618   2.85622
   R13        2.62769  -0.00746   0.00000  -0.01569  -0.01569   2.61200
   R14        2.92501  -0.00814   0.00000  -0.02752  -0.02752   2.89749
   R15        2.07004  -0.00212   0.00000  -0.00615  -0.00615   2.06389
   R16        1.84398  -0.00237   0.00000  -0.00452  -0.00452   1.83946
   R17        2.74210  -0.00838   0.00000  -0.02180  -0.02180   2.72030
   R18        2.06476  -0.00232   0.00000  -0.00666  -0.00666   2.05811
   R19        1.82188  -0.00287   0.00000  -0.00523  -0.00523   1.81665
   R20        2.69407  -0.00709   0.00000  -0.01689  -0.01689   2.67719
   R21        2.07319  -0.00270   0.00000  -0.00786  -0.00786   2.06533
   R22        2.06920  -0.00245   0.00000  -0.00709  -0.00709   2.06211
   R23        1.82031  -0.00282   0.00000  -0.00512  -0.00512   1.81519
   R24        1.93272  -0.00297   0.00000  -0.00671  -0.00671   1.92600
   R25        1.97030  -0.00260   0.00000  -0.00629  -0.00629   1.96401
   R26        1.93234  -0.00286   0.00000  -0.00647  -0.00647   1.92587
   R27        2.06990  -0.00252   0.00000  -0.00731  -0.00731   2.06259
   R28        2.05467  -0.00227   0.00000  -0.00640  -0.00640   2.04827
   R29        2.06266  -0.00228   0.00000  -0.00653  -0.00653   2.05613
    A1        1.94495   0.00105   0.00000  -0.00120  -0.00138   1.94358
    A2        2.00705  -0.00083   0.00000  -0.01133  -0.01146   1.99559
    A3        1.78328   0.00003   0.00000   0.00941   0.00946   1.79274
    A4        2.02558  -0.00089   0.00000  -0.00937  -0.00952   2.01607
    A5        1.86246  -0.00026   0.00000   0.00448   0.00451   1.86697
    A6        1.81080   0.00107   0.00000   0.01391   0.01400   1.82480
    A7        2.10092  -0.00013   0.00000  -0.00856  -0.00853   2.09239
    A8        2.01951  -0.00104   0.00000  -0.01124  -0.01125   2.00826
    A9        1.94908   0.00046   0.00000  -0.00304  -0.00312   1.94597
   A10        1.78830  -0.00001   0.00000   0.00479   0.00482   1.79312
   A11        1.84508  -0.00003   0.00000  -0.00117  -0.00122   1.84386
   A12        1.92957   0.00043   0.00000   0.00600   0.00600   1.93557
   A13        1.93407   0.00023   0.00000   0.00553   0.00553   1.93959
   A14        2.01181  -0.00247   0.00000  -0.00976  -0.00976   2.00205
   A15        1.97309  -0.00022   0.00000  -0.00499  -0.00507   1.96802
   A16        1.91065  -0.00004   0.00000   0.00280   0.00282   1.91347
   A17        1.88787   0.00013   0.00000  -0.00357  -0.00367   1.88420
   A18        1.91867   0.00009   0.00000   0.00375   0.00380   1.92247
   A19        1.88912  -0.00061   0.00000  -0.01035  -0.01038   1.87874
   A20        1.88195   0.00069   0.00000   0.01299   0.01301   1.89496
   A21        1.94584  -0.00023   0.00000  -0.00420  -0.00427   1.94158
   A22        1.91291   0.00006   0.00000  -0.00461  -0.00468   1.90823
   A23        1.88903   0.00010   0.00000   0.00220   0.00220   1.89123
   A24        2.00281  -0.00072   0.00000  -0.00778  -0.00785   1.99497
   A25        1.85217   0.00069   0.00000   0.01279   0.01281   1.86497
   A26        1.85466   0.00019   0.00000   0.00323   0.00327   1.85793
   A27        1.92439   0.00028   0.00000   0.00172   0.00172   1.92611
   A28        1.99869  -0.00079   0.00000  -0.00531  -0.00531   1.99338
   A29        1.90831  -0.00036   0.00000  -0.00254  -0.00254   1.90577
   A30        1.92977   0.00034   0.00000  -0.00016  -0.00017   1.92960
   A31        1.81245   0.00057   0.00000   0.00049   0.00047   1.81292
   A32        1.89245  -0.00001   0.00000   0.00028   0.00026   1.89272
   A33        1.91820   0.00028   0.00000   0.00789   0.00789   1.92609
   A34        1.94140  -0.00036   0.00000  -0.00219  -0.00219   1.93921
   A35        1.96037  -0.00173   0.00000  -0.00883  -0.00884   1.95154
   A36        1.86787   0.00050   0.00000   0.00250   0.00249   1.87036
   A37        1.88387   0.00041   0.00000   0.00157   0.00156   1.88543
   A38        1.92703   0.00038   0.00000   0.00038   0.00038   1.92742
   A39        1.93399   0.00044   0.00000   0.00047   0.00046   1.93446
   A40        1.88787   0.00006   0.00000   0.00444   0.00444   1.89230
   A41        1.92323   0.00029   0.00000   0.00179   0.00179   1.92502
   A42        1.95831  -0.00038   0.00000  -0.00183  -0.00183   1.95648
   A43        1.88255  -0.00117   0.00000  -0.00811  -0.00813   1.87442
   A44        1.93445  -0.00019   0.00000  -0.00071  -0.00071   1.93373
   A45        1.92293   0.00074   0.00000   0.00369   0.00368   1.92661
   A46        1.88783   0.00050   0.00000   0.00475   0.00475   1.89258
   A47        1.87625   0.00056   0.00000   0.00243   0.00242   1.87867
   A48        1.92484  -0.00028   0.00000  -0.00183  -0.00183   1.92301
   A49        1.85119   0.00040   0.00000   0.00287   0.00287   1.85406
   A50        1.94156  -0.00080   0.00000  -0.00522  -0.00522   1.93634
   A51        1.91316   0.00020   0.00000   0.00195   0.00195   1.91511
   A52        1.91417   0.00030   0.00000   0.00106   0.00105   1.91522
   A53        1.91800   0.00019   0.00000   0.00129   0.00129   1.91929
    D1       -0.83368  -0.00012   0.00000  -0.01446  -0.01445  -0.84814
    D2        1.51778  -0.00120   0.00000  -0.04126  -0.04124   1.47654
    D3       -2.81680  -0.00027   0.00000  -0.02404  -0.02406  -2.84086
    D4        0.79770  -0.00006   0.00000   0.01591   0.01590   0.81361
    D5       -1.22736  -0.00005   0.00000   0.02027   0.02026  -1.20710
    D6        2.94162  -0.00038   0.00000   0.01222   0.01221   2.95383
    D7       -1.54474   0.00099   0.00000   0.04391   0.04391  -1.50082
    D8        2.71339   0.00100   0.00000   0.04827   0.04827   2.76165
    D9        0.59917   0.00066   0.00000   0.04022   0.04022   0.63939
   D10        2.73081   0.00033   0.00000   0.02877   0.02879   2.75960
   D11        0.70575   0.00034   0.00000   0.03314   0.03314   0.73889
   D12       -1.40846   0.00001   0.00000   0.02508   0.02509  -1.38337
   D13       -1.36211   0.00021   0.00000   0.01599   0.01592  -1.34619
   D14        2.80348   0.00046   0.00000   0.01922   0.01915   2.82263
   D15        0.77505  -0.00007   0.00000   0.01198   0.01191   0.78696
   D16        0.95216  -0.00003   0.00000  -0.00841  -0.00835   0.94382
   D17       -1.16543   0.00022   0.00000  -0.00518  -0.00511  -1.17054
   D18        3.08932  -0.00031   0.00000  -0.01242  -0.01236   3.07697
   D19        2.98881  -0.00009   0.00000   0.00155   0.00156   2.99037
   D20        0.87122   0.00016   0.00000   0.00478   0.00479   0.87601
   D21       -1.15721  -0.00037   0.00000  -0.00246  -0.00245  -1.15966
   D22       -1.23515   0.00013   0.00000   0.02677   0.02674  -1.20841
   D23        0.87647  -0.00032   0.00000   0.01431   0.01434   0.89081
   D24        2.94727   0.00017   0.00000   0.02213   0.02213   2.96940
   D25       -1.17432   0.00058   0.00000   0.01647   0.01649  -1.15783
   D26        2.94211   0.00070   0.00000   0.02880   0.02880   2.97090
   D27        0.84800   0.00021   0.00000   0.01963   0.01962   0.86762
   D28       -0.87302   0.00033   0.00000  -0.01661  -0.01663  -0.88964
   D29       -3.01829   0.00040   0.00000  -0.02004  -0.02006  -3.03834
   D30        1.21860  -0.00047   0.00000  -0.03510  -0.03510   1.18350
   D31        1.33724  -0.00069   0.00000  -0.03351  -0.03351   1.30373
   D32       -0.80802  -0.00063   0.00000  -0.03694  -0.03694  -0.84497
   D33       -2.85432  -0.00150   0.00000  -0.05199  -0.05199  -2.90631
   D34       -2.85479  -0.00007   0.00000  -0.02402  -0.02401  -2.87880
   D35        1.28313   0.00000   0.00000  -0.02745  -0.02745   1.25568
   D36       -0.76317  -0.00088   0.00000  -0.04250  -0.04249  -0.80566
   D37       -1.01116   0.00028   0.00000   0.00550   0.00550  -1.00567
   D38       -3.08137  -0.00004   0.00000   0.00249   0.00249  -3.07888
   D39        1.11679  -0.00008   0.00000   0.00206   0.00206   1.11886
   D40       -1.36590   0.00064   0.00000   0.03306   0.03306  -1.33284
   D41        0.87091  -0.00043   0.00000   0.01600   0.01600   0.88691
   D42        2.88657  -0.00012   0.00000   0.01858   0.01859   2.90516
   D43        0.77491   0.00050   0.00000   0.03594   0.03593   0.81084
   D44        3.01172  -0.00057   0.00000   0.01888   0.01887   3.03060
   D45       -1.25581  -0.00026   0.00000   0.02147   0.02146  -1.23435
   D46        2.82638   0.00103   0.00000   0.04766   0.04764   2.87402
   D47       -1.21999  -0.00005   0.00000   0.03061   0.03058  -1.18941
   D48        0.79566   0.00026   0.00000   0.03319   0.03317   0.82883
   D49        0.75662   0.00015   0.00000  -0.00338  -0.00338   0.75324
   D50       -1.36446   0.00026   0.00000  -0.00136  -0.00136  -1.36581
   D51        2.86914   0.00039   0.00000   0.00095   0.00094   2.87008
   D52        2.90023  -0.00040   0.00000  -0.01782  -0.01780   2.88242
   D53        0.77915  -0.00029   0.00000  -0.01580  -0.01578   0.76337
   D54       -1.27044  -0.00016   0.00000  -0.01350  -0.01348  -1.28393
   D55       -1.30808  -0.00025   0.00000  -0.01185  -0.01186  -1.31994
   D56        2.85403  -0.00014   0.00000  -0.00983  -0.00984   2.84419
   D57        0.80444   0.00000   0.00000  -0.00753  -0.00754   0.79690
   D58        1.36497  -0.00019   0.00000   0.00014   0.00016   1.36513
   D59       -0.82274   0.00050   0.00000   0.01630   0.01628  -0.80646
   D60       -2.86512   0.00022   0.00000   0.00816   0.00817  -2.85695
   D61       -0.84247   0.00050   0.00000  -0.01549  -0.01552  -0.85799
   D62        1.23727   0.00001   0.00000  -0.02113  -0.02115   1.21612
   D63       -3.00641   0.00061   0.00000  -0.01173  -0.01176  -3.01817
   D64        1.36234  -0.00032   0.00000  -0.03109  -0.03108   1.33126
   D65       -2.84110  -0.00081   0.00000  -0.03673  -0.03671  -2.87782
   D66       -0.80160  -0.00021   0.00000  -0.02733  -0.02732  -0.82892
   D67       -2.87989   0.00025   0.00000  -0.01751  -0.01752  -2.89741
   D68       -0.80015  -0.00024   0.00000  -0.02314  -0.02315  -0.82330
   D69        1.23935   0.00036   0.00000  -0.01375  -0.01375   1.22560
   D70       -1.22945  -0.00037   0.00000  -0.00194  -0.00193  -1.23139
   D71        2.91318   0.00042   0.00000   0.00536   0.00536   2.91854
   D72        0.89176   0.00001   0.00000   0.00124   0.00123   0.89299
   D73       -2.97271   0.00000   0.00000   0.00136   0.00136  -2.97135
   D74       -0.88935  -0.00025   0.00000  -0.00103  -0.00103  -0.89038
   D75        1.20194   0.00035   0.00000   0.00508   0.00508   1.20702
         Item               Value     Threshold  Converged?
 Maximum Force            0.009531     0.000015     NO 
 RMS     Force            0.002523     0.000010     NO 
 Maximum Displacement     0.256349     0.000060     NO 
 RMS     Displacement     0.052978     0.000040     NO 
 Predicted change in Energy=-1.769100D-03
 GradGradGradGradGradGradGradGradGradGradGradGradGradGradGradGradGradGrad

                          Input orientation:                          
 ---------------------------------------------------------------------
 Center     Atomic      Atomic             Coordinates (Angstroms)
 Number     Number       Type             X           Y           Z
 ---------------------------------------------------------------------
      1          6           0       -1.369023   -0.161358    0.497752
      2          8           0       -0.204045   -0.930794    0.814629
      3          6           0        1.004332   -0.686215    0.135069
      4          8           0        1.010886   -1.048671   -1.185866
      5          6           0        1.368142    0.795373    0.157030
      6          6           0        0.212083    1.698751   -0.303912
      7          8           0        0.067940    1.665668   -1.678190
      8          6           0       -1.058404    1.333372    0.472829
      9          8           0       -0.784739    1.782248    1.812917
     10          6           0       -2.159962   -0.683658   -0.685277
     11          8           0       -1.544575   -0.352320   -1.917580
     12          1           0       -2.015296   -0.338068    1.359245
     13          1           0        1.729121   -1.280535    0.708150
[...]
 570,-0.00002103,-0.00006607,-0.00008687,-0.00047636,0.00022040,-0.0003
 6762,0.00003937,-0.00000040,0.00005761,-0.00003438,-0.00001929,-0.0000
 0850,-0.00001775,0.00000244,-0.00003548,-0.17451749,0.14311448,-0.0841
 8395,0.17591045,-0.00056524,0.00067711,-0.00010901,0.00154176,-0.00119
 717,0.00030629,-0.00390612,0.00430778,-0.00398252,0.00058003,-0.000819
 98,0.00159178,-0.00643237,0.01020204,0.00066502,0.00003311,-0.00147687
 ,-0.00208768,-0.00093714,0.00049599,-0.00114457,0.00038464,0.00035173,
 0.00056316,-0.00103296,0.00006959,-0.00027513,0.00015272,-0.00008596,-
 0.00007320,-0.00003780,-0.00019527,0.00007924,0.00010057,-0.00006792,-
 0.00001906,0.00145271,-0.00129241,0.00070131,0.00002836,-0.00008753,0.
 00004102,-0.00004679,-0.00000599,-0.00000847,0.00021263,0.00035101,0.0
 0007865,-0.00004632,-0.00010591,-0.00003045,-0.00006034,0.00016145,-0.
 00005465,0.00004953,0.00000453,0.00006564,-0.00005275,-0.00004089,-0.0
 0002693,-0.00001828,0.00003047,-0.00000457,0.13752680,-0.23529662,0.10
 450505,-0.15172599,0.24646376,-0.00032526,0.00040277,-0.00004026,0.001
 16941,-0.00032599,-0.00009929,-0.00210922,0.00128121,0.00061390,0.0009
 8209,0.00106612,0.00122595,-0.01983451,0.02260178,-0.01271435,0.002031
 65,-0.00391359,-0.00441056,-0.00178698,0.00074341,-0.00155140,0.000013
 54,0.00000365,-0.00050360,0.00241005,-0.00023594,-0.00017891,0.0000461
 1,-0.00001202,-0.00009949,0.00000350,-0.00016070,0.00010423,0.00010134
 ,-0.00009622,0.00002858,0.00046866,-0.00167901,0.00069373,0.00057102,0
 .00049222,-0.00005298,0.00041626,-0.00002968,0.00017820,-0.00001495,0.
 00052711,-0.00003161,-0.00001486,0.00000946,0.00007045,0.00038998,-0.0
 0001457,0.00050982,0.00002587,-0.00001127,0.00004698,-0.00003280,-0.00
 000564,0.00002216,-0.00002627,0.00001259,-0.00001893,-0.08598446,0.110
 58150,-0.12183870,0.09426406,-0.11398077,0.12549949,0.00188294,-0.0016
 5348,0.00094963,-0.00461929,0.00121257,0.00107462,0.00487086,0.0027217
 2,-0.00197440,-0.00152832,-0.00188153,-0.00052540,0.01396327,0.0018186
 5,0.00378051,0.00536293,-0.00106696,-0.00136100,-0.00332308,0.00065252
 ,0.00039601,-0.00025447,-0.00473814,-0.01314898,0.00512103,-0.00037577
 ,0.00544328,-0.00039462,0.00076068,-0.00103148,-0.00037604,0.00010509,
 0.00085973,-0.00065486,-0.00047509,0.00016996,-0.00064250,0.00043828,-
 0.00020112,-0.00159111,-0.00138181,-0.00380418,0.00022360,-0.00002229,
 -0.00016776,0.00083857,0.00000470,-0.00025166,-0.00014208,0.00084226,0
 .00243787,0.00043156,-0.00096687,0.00504543,-0.00025458,-0.00007012,-0
 .00008335,0.00020510,0.00020778,0.00035718,-0.00004055,-0.00011135,-0.
 00009991,-0.25951421,0.02249880,0.12140852,-0.01101995,0.00194517,0.00
 531270,0.26348837,-0.00263590,0.00092059,-0.00138435,0.00113210,0.0005
 5109,0.00207851,0.00164419,-0.00083780,-0.00216616,-0.00014937,0.00032
 174,0.00070686,0.00611326,-0.00024708,-0.00591719,-0.00058889,0.001964
 79,0.00155418,0.00049499,-0.00082067,-0.00044343,-0.00150614,0.0020163
 8,0.00254284,0.00003641,-0.00497026,-0.00050511,0.00025745,-0.00037845
 ,0.00002894,0.00001517,-0.00016328,0.00007137,0.00011194,0.00001147,-0
 .00012425,0.00008402,-0.00019368,-0.00003479,-0.00019764,0.00011798,-0
 .00040418,-0.00024365,-0.00061492,0.00034716,0.00001144,0.00023994,-0.
 00003079,-0.00000308,-0.00040208,-0.00062727,-0.00138089,-0.00022211,-
 0.00184522,0.00013040,0.00001887,0.00012499,-0.00010008,-0.00011117,-0
 .00011620,-0.00002452,0.00004332,0.00000012,0.02612035,-0.06885882,-0.
 01439176,0.02134099,-0.00158925,-0.01553654,-0.02088103,0.06654523,-0.
 00092778,-0.00018567,-0.00038355,0.00037201,0.00036133,0.00033482,0.00
 029107,-0.00088193,-0.00035318,0.00001117,0.00041511,0.00033930,0.0269
 7020,-0.00332057,-0.02290326,-0.00085622,0.00082623,-0.00107295,0.0009
 2910,-0.00005123,0.00129033,-0.00476014,0.00180805,-0.00040182,0.00142
 619,-0.00083587,-0.00957734,0.00002998,-0.00006917,0.00005818,0.000147
 78,0.00010741,-0.00002255,0.00015852,0.00006498,0.00000104,0.00002701,
 -0.00009299,0.00006179,-0.00272465,-0.00198454,-0.00402748,-0.00014646
 ,0.00059382,-0.00006506,-0.00025707,-0.00031712,-0.00000726,0.00021647
 ,-0.00034356,-0.00075692,0.00206498,-0.00087460,0.00154773,0.00004205,
 -0.00000346,0.00002742,-0.00001347,0.00000318,-0.00000578,-0.00001017,
 0.00000549,-0.00003769,0.12897997,-0.01310427,-0.13425888,-0.01731195,
 -0.00035014,0.01206763,-0.13153092,0.01712293,0.15670609,0.00032874,-0
 .00018339,0.00003187,0.00004135,-0.00004417,-0.00015473,-0.00019814,0.
 00085377,-0.00031353,0.00019407,0.00012662,0.00043409,-0.00286557,-0.0
 0368079,-0.00076800,-0.00067053,-0.00163171,-0.00064663,0.00045225,0.0
 0066572,0.00081211,-0.00003728,-0.00012681,-0.00011386,-0.00040527,0.0
 0123603,0.00005023,-0.00006538,0.00004448,-0.00005889,0.00007828,0.000
 11305,0.00007914,-0.00000266,0.00003817,0.00000599,0.00018082,-0.00022
 791,0.00020480,0.00095979,0.00075459,0.00091754,-0.00015942,0.00101777
 ,-0.00031061,-0.00016027,-0.00023520,0.00005314,0.00003283,0.00002541,
 0.00004727,0.00000736,0.00025790,0.00013461,-0.00001542,-0.00001132,-0
 .00001214,0.00001417,0.00002887,0.00003001,-0.00000402,-0.00001262,-0.
 00004544,-0.14809597,-0.15472806,-0.00496271,0.01440070,0.02108020,0.0
 0190438,-0.01214060,-0.02972697,-0.00301443,0.14810181,-0.00049499,0.0
 0014765,-0.00011250,0.00054468,0.00030040,0.00019868,0.00006309,-0.000
 18851,-0.00131168,-0.00003044,0.00012694,0.00027765,-0.00244085,-0.005
 20552,-0.00366438,-0.00067639,0.00254057,0.00033209,0.00036342,-0.0005
 5492,0.00042418,-0.00001643,-0.00037588,-0.00022338,0.00119225,-0.0008
 8274,0.00019293,0.00000255,-0.00001047,-0.00004469,0.00004360,0.000000
 31,0.00008047,-0.00000102,-0.00004317,-0.00001113,0.00001995,0.0002321
 4,-0.00001547,0.00082569,0.00088636,0.00044661,0.00004228,-0.00044831,
 0.00008148,-0.00000661,-0.00007358,-0.00008268,0.00009212,0.00004761,0
 .00001402,0.00004867,0.00005316,0.00016601,0.00001559,-0.00000761,0.00
 002166,-0.00001173,-0.00000097,0.00000067,-0.00001550,0.00000866,-0.00
 003207,-0.14958148,-0.32886852,-0.00262169,-0.01453310,-0.02057500,-0.
 00123711,0.00019917,0.00691425,0.00134659,0.16445152,0.34604616,0.0001
 6123,-0.00019302,-0.00019074,0.00005162,0.00027139,0.00067961,-0.00089
 546,0.00200020,-0.00649863,-0.00032099,-0.00242988,-0.00047293,-0.0171
 1505,-0.03116379,0.00098048,0.00017370,-0.00150104,0.00005199,0.000699
 87,0.00071646,0.00040746,-0.00012954,0.00015738,0.00053554,0.00041020,
 -0.00067732,-0.00039468,-0.00000462,-0.00003407,0.00001312,0.00007554,
 0.00015401,-0.00001157,-0.00000803,0.00009306,-0.00001406,0.00021153,0
 .00013156,0.00009977,0.00111219,-0.00010113,0.00101203,-0.00049027,0.0
 0118221,0.00011121,-0.00010852,-0.00034408,0.00008117,0.00002303,0.000
 00695,-0.00005614,0.00001238,0.00002499,0.00009845,-0.00000092,-0.0000
 0062,-0.00000341,0.00000967,0.00001637,-0.00000144,-0.00000262,-0.0000
 1535,-0.00001276,-0.00727782,-0.00697256,-0.05552443,0.01067427,0.0138
 0659,0.00049712,0.00701906,0.01899314,0.00136649,0.00575968,0.00586089
 ,0.05764607,-0.00008660,0.00078093,0.00035369,-0.00011643,-0.00058681,
 0.00024030,-0.00263472,0.00212479,-0.00189463,-0.06294062,-0.01164199,
 -0.00054600,0.00059569,-0.00078668,-0.00110362,0.00020729,-0.00041095,
 -0.00024396,-0.00049586,0.00048198,-0.00002883,0.00003173,0.00019786,0
 .00003625,-0.00024949,-0.00020298,-0.00015442,-0.00026413,0.00088255,0
 .00011688,-0.00015811,-0.00080244,0.00004118,-0.00000225,-0.00005288,-
 0.00000783,0.00074315,-0.00315187,0.00028948,0.00012357,0.00013149,-0.
 00032691,-0.00010979,-0.00002790,0.00001686,0.00089344,0.00026731,0.00
 034715,-0.00003641,-0.00000227,0.00000615,0.00000158,0.00006361,0.0000
 4431,0.00006596,-0.00027729,-0.00003697,-0.00057809,-0.00008794,0.0000
 8512,-0.00014398,0.00015494,-0.00024097,0.00035679,-0.00035199,-0.0004
 1943,0.00007482,-0.00031679,-0.00002046,0.00024840,-0.00006479,-0.0001
 2808,0.00001858,-0.00010579,-0.00002240,0.58488817,0.00288646,-0.00192
 888,0.00093580,-0.00865526,0.00060879,0.00674671,0.00726057,-0.0209249
 0,-0.02556802,-0.01240526,-0.22309690,-0.02754739,0.00029672,-0.000043
 47,-0.00010369,0.00076647,-0.00100917,0.00013113,-0.00092921,0.0009315
 9,-0.00021451,-0.00014544,-0.00010536,-0.00061566,-0.00056919,0.000275
 20,0.00035663,0.00100803,0.00177475,-0.00072588,-0.00178705,-0.0012401
 0,-0.00106360,-0.00052217,0.00028005,0.00006047,-0.00006000,0.00413499
 ,0.00688195,-0.00026887,-0.00016126,0.00032123,-0.00018191,0.00016893,
 0.00001273,0.00155980,-0.00090215,0.00058416,-0.00007397,0.00019103,0.
 00008522,0.00012982,-0.00012401,-0.00020583,-0.00023000,-0.00037537,-0
 .00015538,-0.00063120,-0.00031603,0.00044718,-0.00059369,0.00073686,0.
 00027659,0.00035631,0.00218449,0.00158250,-0.00045885,-0.00021244,-0.0
 0064931,0.00059221,-0.00031149,-0.00028376,-0.00012671,-0.00008419,0.0
 0027712,-0.00195964,0.46130290,0.00039834,-0.00030351,-0.00010129,-0.0
 0141061,-0.00031280,0.00144348,-0.00303054,-0.04797677,-0.02028633,0.0
 0027520,0.00787887,-0.08589309,0.00072107,-0.00041978,-0.00524459,-0.0
 0009151,-0.00049620,-0.00077630,-0.00064899,0.00114493,0.00026331,0.00
 002531,-0.00011908,-0.00015143,-0.00003650,0.00010932,0.00016656,0.000
 35592,0.00005666,-0.00001301,-0.00041672,0.00002059,-0.00068409,-0.000
 11275,0.00006201,0.00002016,0.00111386,-0.00198267,0.00198983,-0.00027
 959,-0.00014689,0.00012284,0.00006675,0.00000172,0.00005853,0.00087674
 ,-0.00027950,0.00059544,0.00002180,0.00002920,0.00000838,0.00003597,-0
 .00004610,-0.00002468,-0.00002736,0.00001669,-0.00010523,0.00018613,-0
 .00008130,-0.00008150,-0.00030266,0.00013583,0.00029898,-0.00053990,-0
 .00124368,0.00018186,0.00004384,-0.00021483,-0.00000186,-0.00003427,0.
 00000278,0.00007850,-0.00005663,-0.00009962,-0.00039050,-0.00589444,-0
 .01668771,0.63200508,-0.00032296,-0.00006982,-0.00022059,-0.00009479,0
 .00008871,0.00035163,0.00117698,-0.00064776,-0.00005680,0.00770852,0.0
 0003191,0.00355683,0.00029333,-0.00004655,0.00024525,-0.00012745,-0.00
 013513,-0.00018870,0.00008139,0.00012249,0.00012018,0.00005041,-0.0001
 1445,-0.00002856,0.00004768,0.00005436,0.00010537,0.00013093,-0.000230
 64,-0.00028045,-0.00013056,0.00041575,0.00025612,0.00000663,0.00002370
 ,0.00000731,-0.00035535,0.00089869,0.00089358,-0.00001760,-0.00002706,
 0.00000751,0.00005443,-0.00001293,0.00002905,-0.00011364,-0.00019463,-
 0.00003578,0.00000707,-0.00003424,-0.00000008,0.00000115,-0.00000571,-
 0.00002093,-0.00001566,0.00008818,0.00004385,0.00017981,0.00004216,-0.
 00010270,0.00010417,-0.00012538,0.00007802,0.00001762,0.00007706,0.000
 06234,-0.00000293,0.00006606,-0.00001231,-0.00004531,0.00002442,-0.000
 00346,-0.00000050,0.00000582,0.00000677,-0.19600479,0.08699989,-0.0954
 2926,0.20279636,-0.00034548,0.00005181,-0.00003531,0.00054903,0.000183
 00,-0.00104925,0.00132292,0.00146449,0.00814773,0.02347068,-0.03895170
 ,0.00943758,-0.00044149,0.00057942,0.00010499,0.00003143,0.00038505,0.
 00041843,0.00028868,-0.00052640,-0.00015852,-0.00002335,0.00002107,0.0
 0007772,0.00006154,-0.00000469,-0.00006252,-0.00008488,-0.00020098,-0.
 00002662,0.00011339,0.00041638,0.00026649,0.00002971,-0.00000254,-0.00
 001263,-0.00068074,0.00089301,-0.00164513,0.00007525,0.00000743,0.0000
 3394,-0.00002424,0.00000058,-0.00003460,-0.00052851,0.00020347,-0.0002
 3220,0.00000072,-0.00001835,-0.00000523,-0.00001355,0.00000560,0.00000
 753,0.00001166,0.00004326,0.00001258,0.00010255,0.00003313,-0.00007094
 ,0.00015529,-0.00011318,-0.00003150,-0.00011147,-0.00020940,-0.0001982
 1,0.00004337,-0.00003926,-0.00000781,-0.00002950,0.00001400,0.00001425
 ,0.00002108,0.00001762,-0.00003311,0.08278602,-0.09954091,0.05399921,-
 0.09696912,0.12425231,0.00002562,-0.00010202,0.00002804,-0.00043189,0.
 00053624,-0.00044458,0.00304001,-0.00208778,0.00370269,0.00555313,-0.0
 0476668,0.00375155,0.00009663,-0.00003543,0.00018580,-0.00000823,-0.00
 006876,-0.00005530,0.00001551,0.00003745,-0.00000862,-0.00003732,-0.00
 002128,-0.00003402,-0.00000510,0.00003460,0.00003623,0.00005933,0.0001
 2885,-0.00018288,-0.00009843,0.00013295,0.00023993,-0.00001399,0.00001
 518,0.00001122,-0.00064878,0.00129190,0.00068579,-0.00001305,0.0000353
 7,0.00002030,0.00000847,-0.00000410,0.00002216,-0.00002139,-0.00011856
 ,-0.00007430,0.00000647,0.00001137,0.00000126,0.00000682,-0.00001430,-
 0.00001455,-0.00003677,-0.00004626,0.00001841,-0.00004727,-0.00003752,
 0.00003321,0.00010331,-0.00006901,-0.00003586,-0.00000493,0.00011289,0
 .00001696,-0.00005990,-0.00005047,-0.00004869,0.00000493,-0.00002081,-
 0.00001177,-0.00002498,0.00000541,0.00001027,-0.09511805,0.05856306,-0
 .11733779,0.10395618,-0.06284940,0.11592628,0.00033322,-0.00018270,-0.
 00004474,0.00040056,0.00052895,0.00014040,-0.00071903,-0.00113353,-0.0
 0017823,0.00102028,-0.00076603,-0.00415739,0.00028297,-0.00019775,-0.0
 0010607,-0.00004738,-0.00009731,0.00005086,-0.00007673,-0.00005129,-0.
 00006635,-0.00004312,0.00002830,0.00000430,0.00000303,0.00000769,-0.00
 002693,-0.00026684,-0.00028228,0.00053360,0.00029891,-0.00034919,-0.00
 060895,-0.00001316,-0.00001042,-0.00001458,0.00012408,0.00003177,0.000
 37851,0.00000719,0.00000660,-0.00003299,0.00002300,-0.00001970,-0.0000
 0272,0.00008810,0.00016589,0.00007901,-0.00000326,0.00002937,0.0000034
 9,0.00000184,-0.00000610,0.00000196,0.00003590,0.00010094,-0.00008050,
 0.00011728,0.00012532,0.00001648,-0.00020036,0.00021857,0.00007818,-0.
 00001050,-0.00001457,-0.00000920,0.00000288,0.00002183,0.00000806,-0.0
 0001102,-0.00001090,0.00000518,0.00001208,-0.00000499,-0.00001192,-0.0
 5517599,0.00399841,0.03257506,0.00398172,-0.00321661,-0.02426098,0.051
 15933,-0.00019751,0.00012892,-0.00008551,0.00092152,0.00080399,-0.0004
 9801,-0.00090032,-0.00670078,0.00146389,0.00251983,-0.01677030,-0.0429
 3308,0.00015209,0.00016546,-0.00143211,-0.00020568,0.00009893,-0.00031
 748,0.00004773,0.00010139,0.00032297,-0.00001851,-0.00001620,0.0000114
 6,0.00007104,0.00000172,0.00004335,-0.00000529,-0.00009056,-0.00013791
 ,-0.00008609,0.00009054,0.00025526,0.00005211,-0.00002428,0.00001061,-
 0.00025216,-0.00000822,-0.00024778,-0.00002361,0.00002204,-0.00004517,
 0.00005416,-0.00002641,0.00003242,0.00002139,-0.00014241,-0.00017832,0
 .00002823,-0.00000526,-0.00001319,-0.00000140,-0.00000098,0.00001512,-
 0.00000435,0.00002922,0.00004697,0.00004497,0.00001749,0.00002272,0.00
 012009,-0.00003920,-0.00003201,-0.00019607,-0.00070339,-0.00016020,0.0
 0005667,-0.00001835,0.00008226,-0.00012719,0.00003618,0.00004799,0.000
 00334,-0.00000810,-0.00017178,0.00274543,-0.04820269,-0.01615803,-0.00
 301451,0.00354252,0.01413522,-0.00228887,0.06484037,-0.00023414,0.0001
 1833,-0.00006127,0.00007204,-0.00018350,0.00009107,-0.00003474,-0.0002
 1292,0.00185767,-0.00049125,-0.00429531,-0.00320239,0.00021128,0.00001
 570,-0.00010667,-0.00009722,-0.00002080,-0.00011052,0.00007369,-0.0000
 1221,0.00009152,0.00001445,-0.00000892,0.00003387,0.00003453,-0.000021
 51,-0.00000429,0.00006270,0.00003948,-0.00019680,-0.00005397,0.0001808
 6,0.00025546,0.00003043,-0.00000982,0.00000293,0.00012675,0.00001379,0
 .00023563,0.00000558,-0.00000697,-0.00002616,0.00003290,-0.00002023,0.
 00001687,-0.00008956,-0.00006422,-0.00005733,0.00000586,-0.00002284,-0
 .00000531,-0.00000870,0.00001206,0.00001109,-0.00001262,-0.00001347,0.
 00005015,-0.00002724,-0.00002671,-0.00001713,0.00007739,-0.00009154,-0
 .00001003,-0.00001251,-0.00010074,-0.00001429,0.00002830,0.00003370,0.
 00002925,-0.00003554,0.00002456,0.00001820,0.00001651,0.00002025,-0.00
 001559,0.03095048,-0.03076800,-0.32777258,0.00232258,-0.00069314,-0.01
 218536,-0.03328041,0.03588607,0.34737430,0.00024841,-0.00011142,0.0001
 2703,0.00061035,0.00158720,-0.00038168,-0.00077448,-0.00040910,0.00287
 126,0.00530340,-0.00622546,-0.00380831,0.00003971,-0.00000825,0.000012
 62,-0.00009363,0.00005786,0.00004254,0.00010850,-0.00008365,-0.0000304
 9,-0.00005617,0.00001380,-0.00002097,0.00005306,0.00000126,-0.00003659
 ,-0.00012948,0.00038742,-0.00014495,-0.00004037,0.00011593,0.00032101,
 -0.00000120,0.00001298,0.00001328,-0.00026702,0.00017927,-0.00010703,0
 .00004205,0.00006927,-0.00002635,0.00002574,-0.00001096,-0.00000430,-0
 .00014474,0.00003146,-0.00003639,0.00000660,0.00003436,-0.00001198,-0.
 00000420,-0.00001225,0.00000924,-0.00002457,-0.00005869,0.00000968,-0.
 00020214,0.00009034,0.00008180,0.00004659,-0.00002401,-0.00002507,0.00
 000423,-0.00010540,-0.00007946,-0.00001326,0.00000280,0.00004342,-0.00
 008405,-0.00000329,0.00001312,-0.00000183,0.00000893,-0.00001262,-0.26
 925192,-0.07625625,0.07161574,-0.01940666,-0.00659436,0.00795461,-0.00
 132497,0.00048296,0.00031243,0.28533203,-0.00017630,-0.00019970,-0.000
 46764,0.00243436,0.00086080,-0.00079228,-0.00354293,0.00117076,0.00659
 033,-0.03282670,-0.03080874,0.00376022,0.00012217,0.00009522,-0.000210
 84,-0.00026564,0.00015150,0.00000116,0.00040201,-0.00010050,0.00005893
 ,-0.00004083,-0.00014977,0.00002615,0.00016330,0.00009921,0.00007085,0
 .00015678,-0.00068984,-0.00017711,-0.00002400,0.00051946,0.00008330,0.
 00008001,-0.00002004,0.00002678,0.00010385,-0.00028388,-0.00063700,0.0
 0016660,0.00022592,-0.00009581,0.00005327,-0.00003112,0.00001039,-0.00
 050609,-0.00012850,-0.00009367,0.00003181,-0.00001901,-0.00000743,-0.0
 0000188,-0.00001787,-0.00000838,0.00000285,0.00024389,0.00000844,0.000
 43389,0.00028618,-0.00011864,0.00014012,-0.00010383,0.00011390,0.00015
 759,-0.00042053,-0.00038333,0.00003839,-0.00000865,0.00009211,-0.00021
 846,0.00000525,-0.00001846,0.00001716,0.00000567,-0.00005457,-0.069785
 92,-0.07401025,0.02311065,0.01268873,0.00749323,-0.00474813,0.00336862
 ,0.00287833,0.00022804,0.08682725,0.09295683,0.00055737,-0.00038908,0.
 00017672,0.00019417,0.00023688,-0.00007849,-0.00201237,-0.00043594,0.0
 0129959,-0.00693091,-0.00493304,0.00370809,0.00013538,-0.00001018,-0.0
 0013615,0.00003387,-0.00000812,0.00015247,-0.00010860,-0.00008717,-0.0
 0011630,-0.00010341,0.00004073,0.00000243,-0.00002351,0.00003012,-0.00
 004989,-0.00028979,-0.00008992,0.00069596,0.00033450,-0.00056756,-0.00
 065495,-0.00005477,-0.00000135,-0.00003857,-0.00020804,0.00005597,-0.0
 0001176,0.00002467,0.00007838,-0.00001613,-0.00001399,-0.00000406,-0.0
 0001357,0.00016439,0.00018451,0.00003546,0.00000484,0.00006136,0.00001
 001,0.00000873,-0.00002229,-0.00000197,0.00002260,0.00002747,-0.000104
 77,0.00011708,0.00003280,0.00022513,-0.00014282,0.00028648,-0.00003904
 ,0.00002257,-0.00001571,-0.00008088,-0.00002522,-0.00002501,0.00000312
 ,-0.00000945,-0.00005034,-0.00001201,0.00000120,-0.00001319,-0.0000038
 7,0.07365915,0.02732626,-0.07836868,-0.01566295,-0.00537432,0.00574363
 ,0.02900690,0.01003429,-0.00628228,-0.07870161,-0.02636795,0.07395670\
 \-0.00000109,0.00000494,-0.00000048,-0.00000413,0.00000265,0.00000209,
 -0.00000181,-0.00000294,0.00000267,-0.00000081,-0.00000563,0.00000588,
 0.00000138,-0.00000205,-0.00000065,0.00000468,-0.00000133,-0.00000302,
 0.00000526,-0.00000499,-0.00000566,0.00000160,0.00000417,-0.00000578,0
 .00000263,0.00000782,-0.00000631,-0.00000095,0.00000322,-0.00000116,0.
 00000173,-0.00000189,0.00000009,-0.00000278,0.00000921,-0.00000128,-0.
 00000393,-0.00000173,0.00000672,0.00000265,-0.00000678,0.00000012,0.00
 000636,-0.00000106,-0.00000777,0.00000468,-0.00000551,-0.00000315,0.00
 000431,0.00000465,-0.00000798,0.00000089,0.00001115,-0.00000757,-0.000
 00025,0.00000588,-0.00000304,-0.00000387,0.00000359,0.00000303,0.00000
 171,-0.00000276,-0.00000102,0.00000042,0.00000097,-0.00000188,-0.00000
 176,0.00000068,0.00000208,-0.00000017,0.00000450,-0.00000231,0.0000027
 1,-0.00000017,-0.00000315,-0.00000457,-0.00000635,0.00000921,-0.000006
 09,-0.00000691,0.00001181,-0.00000317,-0.00001005,0.00000954,-0.000005
 62,-0.00000325,0.00000896\\\@


 THE WHOLE OF SCIENCE IS NOTHING MORE THAN A REFINEMENT OF EVERYDAY THINKING.
                                                              -- A. EINSTEIN
 Job cpu time:       2 days  9 hours 36 minutes 45.8 seconds.
 File lengths (MBytes):  RWF=    887 Int=      0 D2E=      0 Chk=     34 Scr=      1
 Normal termination of Gaussian 09 at Thu Dec  4 07:42:19 2014.
